# total energy = -458.7085623456000008

ATOMS
O 24.1412014345 20.9238113988 16.7445674988  -0.021288426492168 -0.0027740789894505 -0.014443051201857 
H 23.3224131069 19.3031326793 16.1955168654  -0.0045264979317381 0.01710015610751 0.0026329991089862 
H 25.7278235001 20.2740477828 17.1865084250  0.04007817660549 -0.0072655629935955 0.0082462594888005 
O 20.3073334282 18.1916200222 14.4522648053  0.027607978717934 -0.026109898629635 -0.019618642120778 
H 19.7272440344 19.8454445474 14.8310510663  -0.013952603403065 0.033377233133369 0.0065334556800456 
H 19.0212723885 17.0980843349 15.0446808862  -0.017015140272155 -0.014870411387222 0.0096576001957014 
O 23.6800325396 23.5395748259 12.2101116779  -0.0079674618784765 0.027648706145304 -0.0069939529160568 
H 24.2578731587 22.7245432748 13.7153186497  0.013635990323717 -0.013359081692174 0.027564229727381 
H 23.8047015870 22.2523610528 10.9653789603  -0.0011404058443905 -0.015459952562248 -0.018186806470229 
O 25.4104420173 15.7926687147 15.0648971821  0.02488598731059 0.0038180466282207 0.0018002256317299 
H 23.6749888591 15.2930004184 15.1807204190  -0.014265148354151 -0.0040301081085712 0.0036239251569708 
H 26.3196216404 15.1565413663 16.5474331030  -0.0086977104431179 -0.0015986667984683 -0.0054608138447498 
O 19.2736378255 23.1299463359 14.8768712688  -0.021355003664187 -0.033831712298244 0.015845448118213 
H 18.1940275340 24.5059035628 15.2705202300  -0.0014055566916871 0.01979268433248 -0.002163393462835 
H 20.8661709561 23.4913225452 14.0905030917  0.0145987960464 0.020632804910154 -0.015226550137004 
O 20.5017560663 19.8542639018 19.9400310361  -0.036399404591688 -0.044948646412967 0.0022022904973768 
H 22.0429642207 20.4616541768 20.5863666879  0.01566107877739 0.026714666999992 0.0028695505281662 
H 19.2109083489 21.0626817421 19.5123405387  0.011553458198417 0.015170940048587 0.0011061257130079 
