# total energy = -458.7107593768000129

ATOMS
O 21.2955678767 19.3941438051 12.7823511473  -0.017078444420639 -0.009217636297372 -0.013746218803201 
H 21.1689391827 21.1769138292 12.3621685339  0.0024751411275412 0.0085517614054576 -0.0039662862725526 
H 22.5121531156 19.3543348232 14.1128358814  0.013598228868267 0.004192635902632 0.004465937135727 
O 25.6353572848 19.5923874705 16.2231881329  -0.0096551765923176 0.018578354397776 -0.01701517552917 
H 27.1476620699 19.4282722686 17.1806030292  0.012777558048417 -0.0096010210062285 0.010174487598666 
H 24.5392742459 18.1146476758 16.4175106154  0.0085788360677014 -0.016425441377656 0.013724493595207 
O 21.9598861674 23.0855131929 17.4353684190  0.0092944222844454 0.0043953122841156 0.016745286741296 
H 23.2670384465 23.7343470633 18.5688434793  -0.0026414722878499 0.011175031168461 -0.0036567546754661 
H 22.2693837106 21.3052338285 17.8280007074  -0.0040843647649431 -0.000395565527585 -0.0074606492604879 
O 22.4637855617 15.6889737435 17.2089508188  -0.005954992882873 -0.0050927472339417 0.0036720178170342 
H 21.3215516183 15.6970334277 15.7864874188  0.0012428649445401 -0.005340272788994 -0.023056734965844 
H 21.1413246069 16.2524637784 18.3586491826  0.0048768465005717 0.0067329610407222 0.015887343714506 
O 18.6470422584 19.2397077833 17.3508428351  -0.021561709021618 -0.015186935746245 0.017298750607401 
H 18.9657900136 20.4581940872 16.0593715079  0.0081329909622195 0.012378264476893 -0.015120906233763 
H 16.9285777430 18.7306532146 16.9407135676  -0.0011586917714575 -0.0038142421478053 0.0042479721136934 
O 23.2717192994 24.4029984973 12.2628860745  -0.017673939534741 0.021593948298833 -0.0056868053885191 
H 24.3786455898 23.0506250592 11.8087261757  0.014137118761422 -0.01001184829825 0.0065905546627821 
H 23.1812127306 24.6130189393 14.1017526346  0.0046861027896008 -0.012509462611212 -0.003094471172495 
