# total energy = -458.6850560410999833

ATOMS
O 20.2640530185 19.6060747607 15.4026348005  0.0029461549091746 -0.001391932305446 -0.003262044123036 
H 19.3233546443 20.9501825344 14.6298669863  -0.0042131168435358 0.015483282909247 -0.010741580388724 
H 19.1625615819 18.1745312240 15.1762172003  -0.0044811271730812 -0.014944598845959 0.0066269274567603 
O 18.8797394203 16.2270753007 20.0355850649  -0.0069091977832364 -0.0071356080636564 -0.0060482444647021 
H 17.0430120308 16.4256496682 20.1119224632  0.0070271642553236 0.0028533862494865 0.0017839145560759 
H 19.6049768295 17.9153665505 19.9286019693  0.0005935240090502 0.0044555037826751 0.006034493344177 
O 21.5205625127 21.5510173476 19.8600559140  -0.042236590979252 0.024689272517906 0.044508806746521 
H 23.2481468490 21.2451764254 20.0319171054  0.034222020919986 -0.012554592211129 -0.012534516910631 
H 20.7023996845 21.1763752571 18.3052984194  0.012722807731664 -0.010931944934914 -0.024749029847651 
O 24.2709103830 27.0193515191 14.9964172672  -0.0071607196702944 0.030305395456095 -0.027796439470704 
H 23.4562341005 27.7666533768 16.4504069772  0.0050567241133577 -0.016135789295156 0.0088506451070785 
H 25.0007700636 25.3859058063 15.1305840809  0.0014903901446165 -0.015300178633375 0.019610485327222 
O 21.5470319140 19.2667044184 10.0163468915  0.0033589426991099 0.0014531090659664 -0.0056659149664721 
H 19.7995544251 18.7477287848 9.7537939381  0.0041975192141131 -0.0009574926493532 0.0040046982441677 
H 21.9962086036 18.9046857020 11.7670992768  -0.0056242668474129 -0.0007052341158742 0.000973759163752 
O 27.0826403548 17.7337033469 13.1653571680  0.0099555731302265 0.019527753521791 0.010386910982856 
H 26.3408791757 16.1089768328 12.8107669671  -0.0084506293557103 0.002048550956835 -0.012087154451281 
H 26.5150760692 19.1112649517 12.0511535402  -0.002486480937017 -0.020766289234154 0.0001113444078403 
