# total energy = -458.7142225914000164

ATOMS
O 21.8184174499 22.4186154252 14.3060434252  -0.032871746231506 0.0095306562518808 -0.0091099889367013 
H 23.3599468579 22.9888272179 13.5673360444  0.01803273357305 0.0050145374837246 -0.0007303070643037 
H 22.2143643188 20.9962011581 15.3723273643  0.013642706657908 -0.0037293963790159 0.0072327279776071 
O 23.6736414840 20.3320661708 18.6125358495  -0.0027481024667382 -0.011507507631193 0.0077789653478055 
H 25.0236244179 19.2979056953 17.9397402450  0.003391606326911 -0.0097452150171925 -0.0052236323698512 
H 24.5631736191 21.7144182327 19.4028875704  0.0027281682988486 0.0098973744074539 0.0019318841477633 
O 23.6388761826 16.2008024309 14.6639274197  0.012356068150264 0.0066245486035895 0.034511824556225 
H 23.6251813334 15.7322673814 12.9346933520  -0.0084990031638166 -0.0009211216336351 -0.022250058562149 
H 21.9936518034 16.9090020645 15.0864419557  -0.0036226917410037 -0.0071274096936739 -0.0082575733753306 
O 18.6650683611 18.1837852155 17.7769686388  0.0031016434479142 -0.013787618608661 0.0049652326144392 
H 18.8910645522 19.7088078610 16.8171878048  -1.72069274429e-5 0.012081393713713 -0.001101478866417 
H 20.1040630900 18.1430238113 18.9499030816  -0.0044854073293343 0.0041848311910763 -0.004484708267723 
O 25.0587449879 25.2228526308 16.9721378323  0.0051223349391203 -0.027364702326123 -0.0052469846906373 
H 25.5697157394 26.8464056246 17.4717891210  0.0083855102271524 0.032615736673188 0.01062790101478 
H 23.2909812833 25.0314535555 17.3877321893  -0.0082616650986999 0.0021488230466768 -0.0038942242704105 
O 20.2931604783 18.7373239498 11.0307729515  0.0061865408519505 -0.015610433226882 -0.018408389246469 
H 21.2666512793 20.2846000165 10.9079766232  -0.0024486123412604 0.00250877973998 0.0046510986836049 
H 18.9104040149 19.1562007620 12.1193934597  -0.0099869818077138 0.0051884325513712 0.0070204314343699 
