# total energy = -458.7107893108000098

ATOMS
O 24.0726515998 21.4322423576 18.2447988203  0.0091895451327689 -0.025442561795144 0.017070358713471 
H 22.5983038645 20.5568907314 18.9251873466  0.0030964010205821 0.0007179932709769 0.0011929277716449 
H 23.2861265755 22.8615579065 17.5144137956  -0.0001719679838358 0.022982777812074 -0.017342038900642 
O 22.0757131838 23.7646809557 13.5619144186  0.0065002402299919 0.024886485816677 0.018508304169819 
H 21.0402771428 22.2733143421 13.7044149268  -0.003401214386666 -0.018480628760317 -0.0098099054357066 
H 22.1043085277 24.1747705390 11.7931831739  -0.0004053551649427 0.0011221463783956 -0.008077461695889 
O 21.5318800857 18.9370869554 12.2759251884  -0.04624526002106 -0.0093857663521583 0.0050652583430892 
H 21.1176822366 17.7803550290 13.6971186922  0.013306881332071 0.006193032334379 -0.011476608995633 
H 23.3181801191 19.0051454611 12.1507893785  0.029782191142821 -0.0046020764191096 0.0060788113673781 
O 26.4873991325 18.2848874817 14.3214711537  -0.0036678135410422 -0.0096848396893176 0.018477264495801 
H 25.9577352049 16.8534478800 15.4232328212  0.0055870047877636 0.01070331009983 -0.01455883207339 
H 26.2184003214 19.7102894067 15.4961913882  -0.001292893053006 -0.0010468582771622 -0.0045317846472146 
O 20.3949335975 15.9445498261 16.8889180495  0.016128515436546 -0.013084921131423 -0.010293477793863 
H 21.2026708036 16.6636531825 18.3793832635  -0.015212816107578 0.0041634620184008 -0.0030434628532885 
H 18.7034581582 16.5375460531 16.5428410672  -0.0037258113165915 0.0086884688003938 0.014246970494698 
O 18.9308981005 22.8863473409 17.9734246228  0.035874239029036 -0.051179755405522 -0.01363162207737 
H 17.6763765988 23.8877796403 18.5899611748  -0.055410713188096 0.03847137767794 0.027504366528917 
H 20.1039875009 24.0543023539 17.2634391975  0.010080053841437 0.014976647110617 -0.015380419241466 
