# total energy = -458.7081450960000097

ATOMS
O 23.7491341745 22.2439725562 15.9485012446  0.018328698488992 -0.062040472231631 0.01461177454547 
H 22.2006902567 21.4258229561 15.3378644191  0.0026340102704549 0.019082450190989 -0.0005836709587354 
H 23.7847007200 23.9911571375 15.9520652690  -0.015597499557585 0.044882800502153 -0.0075432192519477 
O 18.5669461938 19.7560151228 15.9858346845  -0.0074088596458735 0.019566367869957 -0.002103490877609 
H 18.5776874001 20.2565035605 17.7610439122  -0.0042125037200774 -0.0013138641819013 -0.0046595546736684 
H 19.1345539431 18.0292849429 15.9573508345  0.0026838679255572 -0.018704553147612 0.0031357743094585 
O 21.2135367319 16.1985593253 18.6028642285  -0.025907764579019 -0.014388821729507 0.0020321658507926 
H 21.3421704259 17.9924012579 18.7200839734  0.0092525530287809 0.016427197743794 0.008260662895868 
H 22.8729453994 15.7740719146 18.0559924499  0.025149500328978 -0.0067486191183991 -0.0046065774145332 
O 26.1695962406 18.4391231925 19.0264615779  0.0016177736896314 -0.0045210182099549 -0.020881618758342 
H 26.0491998652 20.0470764927 18.0539987882  -0.0042139592281373 -0.0080246513635063 0.015560582740246 
H 26.2789358254 18.6501886533 20.8298655274  0.0003451497563803 0.01190308603135 0.0032872832823044 
O 19.3786272595 23.9231194187 13.0209196899  0.013453755141341 0.0078070660195548 -0.013250509755468 
H 18.3303599744 25.2182889409 13.7213109729  -0.0072351834027315 0.013649078836307 0.0040243834509498 
H 18.4150802002 22.4120694121 13.2886750609  -0.0061278855839859 -0.016985945190968 0.0050010748988388 
O 24.2619833142 20.5270689550 10.6826796309  -0.0091336649494063 -0.015293249806558 -0.0088914345695445 
H 22.9233935424 21.7609149573 10.8975018683  0.0026442098820748 0.0066044833111016 0.0018438380453128 
H 25.8567406531 21.3717805530 10.8915662368  0.0037290747413094 0.0081124426516121 0.0047523920504635 
