# total energy = -458.7303115075000051

ATOMS
O 23.3465978287 22.5590334547 16.0858163428  0.0075430431335561 0.045547543043682 0.015871991384462 
H 23.1366794320 22.9992566193 17.9354184401  0.0040828438740435 -0.0074134135529358 -0.023214744755331 
H 22.7137453766 20.8802966629 16.0934092646  -0.012336906649302 -0.035054670350033 0.0001764055168536 
O 20.8604186281 17.9237985108 16.1943490143  0.013229115312512 -0.0086031592974666 -0.010437314853383 
H 21.5077652837 17.5938616840 14.4631439617  -0.0011728338496989 -0.0015347701447731 0.0045887785772677 
H 19.2847739847 18.7711254906 15.8617930263  -0.01840050142219 0.0034202047962542 -0.004145715011882 
O 27.1426089408 19.8749734163 13.9197511699  0.0083960156304368 -0.0099850933715319 -0.012148352044379 
H 26.0070192763 21.0365562710 14.8027958733  -0.0019972319917754 0.0068025631095046 0.0051807307383228 
H 28.1628043362 19.0326466533 15.1836268186  0.0001235935087642 0.0010895095014429 0.0033778533097859 
O 23.0648395832 17.6605123434 11.0303628808  -0.031569704454956 -0.0069941322451454 -0.0062871221090397 
H 24.7722983305 17.5650150065 11.5345759697  0.035126547147131 0.0010619643273149 0.016937940565766 
H 23.1336558694 18.8560327993 9.6587595842  -0.0049792173939838 0.0070736399921908 -0.0055870500777416 
O 17.4766022548 22.0324592302 15.7465159204  0.024226136603383 -0.0052960747603969 0.0015604384066879 
H 19.2529736644 22.6721751695 15.6073205441  -0.017519882826453 0.00181471736854 -0.0001037501459267 
H 16.3622020955 23.4158222958 15.3596340703  -0.003152633268048 0.0068788466646609 -0.0020366371794883 
O 21.3995973295 21.2473647289 20.3779430650  0.0027507089096887 0.023749151382632 0.0036946032147074 
H 21.8772710971 20.7317584780 22.0460898286  -0.0028011220763549 -0.010664313357699 0.0081122176733875 
H 20.3356283056 20.0371251921 19.5321996762  -0.0015425862278651 -0.011913257109124 0.0044497996042219 
