# total energy = -458.7108298009999885

ATOMS
O 23.9838930282 18.9887237364 18.1426118509  0.053016024223088 0.0034491615391041 0.0073346073628691 
H 24.2030956520 20.3544726599 19.3426185179  -0.0028379928182346 0.0010292049361102 0.0026112803566957 
H 22.2688886022 19.0346081896 17.6745076591  -0.023021924141972 -0.0028843744286884 -0.0040989008924933 
O 22.9118416433 22.5903670125 12.6438681979  -0.011308004685447 -0.0090781948831275 -0.02296312069724 
H 24.5261482045 21.9070683072 13.2401695569  0.0050855111144795 0.0069695837829963 0.0024315648685121 
H 22.2836946106 23.7533407060 13.8882305291  -0.0011913658882835 0.0032839951995358 0.010658243893957 
O 19.5122895161 18.4662710058 12.7649089702  -0.0038087783441168 -0.011569844056127 -0.023946076243363 
H 19.5620535781 17.5798739273 11.1148809058  -0.0077806804692854 -0.0024719953128612 0.017631615535492 
H 20.6054189122 19.8753740383 12.3195457490  0.013337559395793 0.02074488492678 0.0077559438531223 
O 27.5141991227 21.9853445650 14.7877442004  -0.0001071757581716 -0.017489084028574 0.003225073867871 
H 26.7217743717 20.7431062866 15.9268997791  0.0014726350001194 -0.0097007943433989 -0.0016287452045456 
H 27.1988169706 23.4960997742 15.7292494879  0.0019151196165116 0.020491388353989 0.0044287773429183 
O 19.5424665612 16.7998722394 17.8221463342  0.000223318261134 0.026445710813876 0.013001034724023 
H 18.7968862445 15.2024919599 17.4597723492  -0.0072767010714201 -0.01199172149227 -0.01144008389948 
H 19.4280851857 17.9079323658 16.3278733209  -0.0077345488914507 -0.027504158967935 -0.0063462896900519 
O 19.9749720821 22.4825146426 17.1789514081  0.018804812698153 0.034290281663159 0.031170261038598 
H 19.5108193088 22.2675657936 18.9558122569  -0.001237177271808 0.0017766399015871 -0.0047323082952451 
H 19.0759932035 21.2324018732 16.3295287214  -0.027552207760375 -0.025779361065898 -0.025103423805398 
