# total energy = -458.7037651154000173

ATOMS
O 24.6124198959 21.4543464904 15.0880879077  0.022085818635818 0.026779370093212 0.017308176294791 
H 24.1106029804 20.0305546125 16.1003634587  -0.010851784423291 -0.011641541222927 -0.0053767877541505 
H 23.8793968129 21.5009131348 13.4550598244  -0.0090692821533159 -0.014235743406501 -0.017198263393611 
O 24.7379223128 15.6529007512 12.1273813343  -0.0075218988934431 0.0088715463821164 -0.0083338143024037 
H 25.7411177272 14.4456091880 13.0283652130  0.01149845179822 -0.0088671339401777 0.0059660953843281 
H 23.1522413311 15.5608275990 13.0432864947  -0.0050207679688864 0.0010193525048695 0.0047528964525898 
O 18.3116025475 20.7754621865 12.4591341885  0.01330037734311 -0.018332955139926 -0.010187001629036 
H 18.7348030544 22.3180555106 13.3007201786  0.0004235378067298 0.015304708690635 0.0093053083483462 
H 19.9807395279 20.1251996827 11.9277902939  -0.013116567090768 0.0011692286419223 0.001523767154866 
O 23.4314371073 26.6328816294 17.7798674795  -0.022702494894646 0.010522841031291 0.010010096039615 
H 24.0168838763 26.1810007410 16.1345788497  0.010633439072335 -0.0089058632353134 -0.012978039749545 
H 24.7465904890 26.2102669379 18.9533801786  0.010912609661099 -0.0047268925500192 0.003394403448183 
O 21.3410611564 15.6226008739 17.0245909753  -0.0016746476824414 -0.010726105967901 -0.023761943216037 
H 19.7878059945 16.5335058175 16.6769417404  -0.0018318905812134 0.0051578206003372 0.0027868674837152 
H 21.8325998485 16.1104413710 18.6843095579  0.0034278677579072 0.0090405759950794 0.017462514404215 
O 20.7530216824 21.1753661430 18.7931823802  -0.014533597333233 -0.028713794554526 -0.023999558427636 
H 21.1573513788 21.7584526434 20.4124948273  0.0077088649659856 0.015588111207118 0.033644925928275 
H 21.0448446121 22.5721443783 17.6709115093  0.0063380242027476 0.012695943560018 -0.0043192555379925 
