# total energy = -458.7148476099999925

ATOMS
O 23.2238751997 19.3803771464 18.5629607602  -0.018004760501342 -0.019963580768832 0.023729637439589 
H 24.5563535955 20.4842590871 19.0841379254  0.0081169881204077 0.011036810395352 -0.0043437290953156 
H 23.0556800780 19.3992592952 16.7608777297  0.0040226042300926 0.0097893978128348 -0.018937579372267 
O 27.3117886100 23.5293948683 14.6412525894  0.017914241709303 -0.0047351539586563 -0.0029833713762704 
H 27.1235075836 24.6468185904 16.0689883269  -0.0022895877880056 0.0037027564434026 0.004799426569887 
H 25.6524441933 23.4488131439 13.8997276261  -0.016815347890454 0.0038847818109721 0.0015338037422642 
O 18.6347495865 18.5727476546 13.4471154135  -0.017523857957253 0.02847915752775 -0.014496691118454 
H 20.0768699233 17.5281804544 13.2055233082  0.017637348253193 -0.010433059421504 0.0056707329922516 
H 18.1274751404 18.6320661746 15.2062109419  0.0006245062075558 -0.015064059051991 0.0044112352735297 
O 24.7881134530 18.5679723154 13.4753970628  -0.030909092812849 -0.026077477562963 -0.0035825078916275 
H 25.5744665122 20.0213516436 12.7754763217  0.017906360894782 0.011250811051441 0.0014584005843526 
H 25.7058970017 17.8433982002 14.8734603121  0.014076992599927 0.0059125185924461 -0.000226098539672 
O 17.3774879811 17.3118350973 18.4657040878  -0.015678584750717 -0.0004815056174419 -0.0043143553683394 
H 17.4585383577 15.7053935785 19.3173358649  -0.0028010613804413 -0.010057281180245 0.0009474689872855 
H 18.8943904711 18.1225920867 18.9915337600  0.02350216538955 0.014492901507515 0.010402286727011 
O 21.8461019455 23.8899150315 14.7292307040  0.0077451076184938 -0.018718737022239 0.0089711874344933 
H 21.7222492600 25.5712445282 14.0940331011  -0.01074154768673 0.014534970019041 -0.0082156805700582 
H 20.3219315667 22.9168758752 14.3265072753  0.0032011107338072 0.002449210266457 -0.0048242709552212 
