# total energy = -458.7121939118999876

ATOMS
O 23.1604181784 21.2946192339 13.7531906617  -0.027057271615805 0.022062803735593 0.010959662092634 
H 23.6991149994 20.9904488301 12.0447095723  0.013519538873453 -0.0089558476902798 -0.003221733487988 
H 24.4825937844 20.9579247445 14.9638591665  0.008783238872209 -0.010110303318109 -0.0039710354025651 
O 25.7134426802 17.3751957426 17.2656747441  -0.0081514539697626 0.0086259119164152 -0.0058043074715183 
H 24.4549130682 16.1866559371 17.8818220125  -0.0064246444096936 0.0030661686466137 -0.0021620689166482 
H 27.3292931481 16.6992801993 17.6999207033  0.014569463412563 -0.007383761410483 0.0054854224284391 
O 25.3619024982 17.4787130795 10.9803361468  3.91224163847e-5 0.018225834239279 -0.025642040164759 
H 27.0366840921 16.8694803210 11.2605448165  0.011988451761027 -0.0075043297669902 0.0057731763199371 
H 24.2328796339 16.5228137440 11.9965479985  -0.010958230318899 -0.012157306491573 0.017634973101864 
O 17.6926887193 21.9448344945 16.8455507123  -0.025283782264648 -0.011984844920558 0.008127699514888 
H 18.7131675738 21.9500879347 15.3440324870  0.0077186052224556 0.010973191299354 -0.0059310528907361 
H 18.2866468172 23.2988633332 17.9241424411  0.0061857482975335 0.0068069541916149 -0.0067693396579575 
O 20.8099251317 25.7367562381 18.2352689287  -0.0051869287678789 0.0090274689882742 0.0031543837677532 
H 21.6757109615 26.8695188714 17.0725446791  0.001971800484361 -0.0046468221527171 0.0020893358770463 
H 22.0530118974 24.8627538767 19.2460497059  0.008590285351771 0.0003026522676996 -0.000522890246036 
O 20.2482794700 17.5449328813 16.2776708423  0.0051378179465273 -0.011315289368302 -0.0026910156131597 
H 20.6312401373 19.1055882128 15.3682927979  0.011381651940442 -0.0062575652752143 -0.0018697705471196 
H 18.7772198591 18.0574324216 17.2294656915  -0.0068118293459585 0.0012307265003472 0.005360407854827 
