# total energy = -458.7112007717000211

ATOMS
O 23.2067013638 19.1252999516 17.0233607632  -0.056162152474271 -0.020117756663766 -0.0053325048364815 
H 23.5456597457 17.8041107829 18.1894071523  0.0068952601850567 -0.014765140378598 0.016549137473263 
H 24.6279855744 20.0372990469 16.6347857180  0.061145381423577 0.036962838282331 -0.012807478187602 
O 23.5376945478 22.6825308716 12.2543237230  0.01043980466511 -0.028022194450535 -0.0096683511724243 
H 22.5381368573 24.1450848228 12.2492176815  -0.017215397606951 0.033727472149364 0.0019954458629594 
H 22.3405640449 21.3949920656 11.6427136883  0.0018011223200433 -0.002843411528623 0.0003688868580166 
O 19.9583273697 18.6446215186 12.5001336982  -0.0053649217837202 -0.0064687734425752 -0.025067141425406 
H 21.5969282569 18.2602189898 13.1133764566  0.030692771340897 -0.021350565649704 0.0035411008171636 
H 19.5383734132 19.6724910940 13.9016683754  -0.027628437911695 0.025717540467869 0.021739498389059 
O 27.5656922845 22.7006023277 15.2889280575  0.0090407885975023 -0.049559677398146 -0.016724933929898 
H 27.4854242548 24.2026326689 16.2187170396  -0.0090548671484148 0.032696781009361 0.0088869303298192 
H 26.4596371581 22.6291914468 13.7717194317  0.0013924928312326 0.014665992849937 0.01372340162355 
O 19.8691039253 15.9868003348 19.2848987067  -0.0027056162682854 0.0033728854989494 0.055840538694321 
H 20.2198560913 15.2522805883 17.7219020038  -0.0010474759971766 -0.0043994351495085 -0.041130750011758 
H 19.2282824958 17.7024623857 19.2234315675  -0.0027072056958987 -0.0034874914406443 -0.012530110575753 
O 19.0916420300 22.0304523405 17.0388300657  -0.036720670974568 -0.023952855493815 -0.016099503596931 
H 20.4402360148 20.8275827376 17.3219791500  0.02279516860144 0.0064170267514865 0.0065361272578291 
H 19.5019281448 23.6924763897 17.5225528484  0.014416697376593 0.021429622461898 0.010171867924413 
