# total energy = -458.6888117621999754

ATOMS
O 20.1570623640 21.5409413250 13.1869643026  0.017368794258276 0.0080229609612165 0.016934417777203 
H 19.7998322149 22.6012575073 14.6739524196  0.0036322532667175 -0.0016589172100286 -0.0059903801529405 
H 18.5828142286 21.4092821786 12.3783767195  -0.029954136393672 -0.0046252324769654 -0.018501912046657 
O 20.2601431740 18.3227481554 21.3211869010  0.032822344544963 -0.01296698513122 -0.019153479910949 
H 18.9344451175 19.5378650768 21.3623111327  -0.01784711640295 -0.0013867068957159 0.019888961709901 
H 20.3932082770 17.0236461119 22.6245238220  -0.016380769473793 0.015132408717261 0.0003559919349856 
O 24.4481516262 21.3823138894 15.3829892021  -0.0054161538721651 0.021188416713717 -0.016236262431938 
H 23.3767710943 20.4505274662 14.1688813948  -0.0093899280500271 0.0066705736777742 0.01974455273008 
H 24.9314473307 20.1196646733 16.5608520521  0.0069488125486228 -0.019134373355593 0.015070228900732 
O 18.1090011725 24.3629400715 18.0250330579  -0.038592937900034 -0.007143611534321 -0.016345064186222 
H 18.8694574175 22.7921539154 18.4589445355  0.018348247635066 -0.010412639018561 0.0082548961233659 
H 19.2053808984 25.7478923973 18.2662509974  0.024305213523047 0.014457542433325 0.0073965595716329 
O 26.4086145382 19.4882843183 10.9785749216  0.01052578567529 -0.0063411506998084 -0.023341369003942 
H 27.3099858108 20.7512661263 9.9956902894  0.0037758451738809 -0.0056472899984555 -0.0055467206234378 
H 25.5576120401 20.5499119709 12.1666725311  -0.0025472147215954 0.01430212656623 0.019543745827394 
O 24.0430565905 16.2309738068 14.4977750925  -0.012070064614962 -0.013942267185103 0.0046171810174242 
H 22.6898384446 15.1623636142 13.8323078480  0.0020901340504752 0.002233229385219 0.0056103957148867 
H 24.7473066954 16.9687023092 12.9902569851  0.012366645045252 0.0012747537020325 -0.012298099988884 
