# total energy = -458.7187877499000024

ATOMS
O 24.6487574499 20.8856370304 16.6726766274  -0.043740256302604 -0.0046168149363654 0.018962398092265 
H 23.0436822035 19.9838745844 17.2391562098  0.023064691470329 0.017768226133087 -0.0087871521970028 
H 25.8960488574 19.6773571402 17.1069206968  0.024144442664999 -0.018078267419855 0.001934887830996 
O 20.1333349560 17.9640232326 14.1418375165  0.0020191409008913 0.0049440793852082 0.0035661405286636 
H 19.8797355275 19.8192680537 14.1841711733  -0.005572662046564 -0.018032357583919 0.0022038360118688 
H 19.1233044002 17.3265031557 15.5571142861  0.0017595208632297 0.0053916886490166 -0.0039456926554316 
O 23.9071134338 23.1672249738 12.3942315262  -0.01683018465204 0.02340357995755 -0.017690876665811 
H 24.5658664795 22.8698613655 14.0829120597  0.0025693489819867 -0.015943651430535 0.0035405556629143 
H 23.5051515650 21.5783390157 11.5844212899  0.0070570312162159 -0.006944815897739 0.0054193342468258 
O 26.1456420654 15.4841651677 14.5173772272  -0.0045284341402884 0.021288470885265 0.0022664204282593 
H 24.3543059104 15.7922038419 14.2606087271  -0.0067664764505023 0.010997369301673 -0.001628212342135 
H 26.1868910190 13.6965196488 14.4618778448  0.0082680334151067 -0.028232664492916 0.0003705452667767 
O 18.7913720221 23.2155452846 15.4559553281  -0.0041306416808005 0.0027685858497777 -0.0026079038795802 
H 17.7375697276 24.5190560604 14.6761652896  0.0009342724197268 -0.0038148442506783 0.003164312329813 
H 20.2391842156 23.1057975189 14.3160476382  0.012099564172122 0.011199814789766 -0.0036359828207699 
O 19.7766452688 20.6704784217 20.1646741830  0.010467382512886 0.022333118229473 0.0079789865908737 
H 20.4509299780 21.6130230589 21.6127981814  0.0012638761274387 -0.018616131556976 0.011894828869707 
H 19.7831478182 22.1982392812 19.1233308564  -0.012098355647417 -0.0057989849883457 -0.023018287247366 
