# total energy = -458.7178687343999854

ATOMS
O 24.3111010897 18.4038665622 16.4067769680  0.0060336806241528 -0.013348472569814 -0.0017777795243442 
H 23.2153638708 19.6444551092 17.1790799095  -0.0075604869028118 0.010226613550504 -0.0006464286499919 
H 23.3794261603 17.7591730828 14.9330736295  -0.0003848542927879 -0.0020048948445781 0.0071475303281515 
O 22.4222569285 22.3014920564 12.7031545925  -0.021556811297577 0.009645855716727 -0.0014338515453965 
H 24.0846513641 21.8273142830 13.2656203956  0.014583527666357 0.0099283424148206 0.0037587672225367 
H 21.7711931806 23.3051882483 14.1503923091  0.0096262187736252 -0.013109393033467 -0.013635621172465 
O 20.6815503302 17.3626838624 12.5928871520  0.0088257403169129 -0.0160849292877 0.021439939616071 
H 19.2548407144 16.8627453352 11.5976777225  -0.003369835866536 0.0026856909569419 -0.012236771161247 
H 21.5655058819 18.8389402216 11.9611798743  -0.012755176793955 0.015811081299408 -0.010283155476339 
O 26.9526309398 22.7008593305 15.4403745317  0.013078771332269 0.036000584938436 -0.02211953416819 
H 26.4617857773 21.0215348337 15.8262397089  -0.001157707012457 -0.029182356149726 0.020867895681673 
H 27.5412335523 23.6529999997 16.8856431532  -0.0025125300035806 -0.0073426201562297 0.0042359841022059 
O 18.3560961618 17.9697944578 18.1297201356  0.010140057770565 -0.0055459693468166 0.020725066102584 
H 17.5575713732 18.1507282270 16.5217517177  -0.0042717787328492 0.0012442130821691 -0.017500549720903 
H 20.1270988580 17.6079666038 17.7206434459  -0.0078356246614327 -0.0053068085433358 -0.0023972637064702 
O 20.7122640577 22.5789984169 18.1687618885  0.027293359707491 0.016258804676346 -0.0012459423501272 
H 20.0340354890 21.3218672026 19.2699509688  -0.013171397327309 -0.015688103680657 0.011516349260611 
H 19.2487274486 23.2883961372 17.3875413269  -0.015004421370119 0.0057878485123726 -0.0064292254770755 
