# total energy = -458.7085387514999866

ATOMS
O 20.9530001168 19.7624080681 13.9846500527  0.0090464022510404 0.0033075321122864 -0.025569216996833 
H 19.6764632994 19.9906416956 15.2561639766  -0.0086887123177652 0.0072297473577627 0.017532222534287 
H 22.5003593315 20.3327559211 14.7933774756  -0.0018293397818802 0.0050473792733565 -0.000863098689568 
O 22.3740877959 15.6904552892 16.2706958612  0.017226052852425 -0.014964734350913 0.01266317935028 
H 20.8242965030 15.0257892887 16.9478340577  -0.0078428521766015 -0.0017265567966245 0.0039421260790215 
H 21.9134064504 16.9920838972 15.0464704574  -0.0080279479961939 0.001786451124098 -0.0071842107485228 
O 26.1939774940 16.5738231359 12.8713194786  0.0041140735147665 0.0070598948072783 -0.013219156388465 
H 25.1036278859 15.3415834012 12.0618815184  -0.0032494173141365 0.0006116103415437 -0.0032704698833967 
H 26.4176153063 15.8230989832 14.5054473828  0.0015137337798621 -0.0040594180627412 0.015434571848445 
O 20.1760541169 26.6413022515 13.3219436988  -0.0040491351649167 0.0091968730466087 0.021741101898986 
H 20.7286309803 25.3108760988 12.2527760368  0.00679988774848 -0.01892668774688 -0.014102547737006 
H 19.5092092616 27.9183379567 12.2145393075  -0.0033675838860304 0.0069275643046768 -0.0062555995327591 
O 18.6989757266 21.4782420840 18.5775872446  0.018877320705782 -0.015448975458 0.01187068256093 
H 17.3889510630 22.2986064437 17.6752465422  -0.018083129528653 0.018786951984019 -0.009340073014219 
H 19.9798267899 22.7470707064 18.9908005460  -0.0024287708457433 -0.0020078459899775 -0.0031410143135734 
O 25.0675586731 21.1983962419 18.5258843231  -0.0069093681142184 0.0007705215964315 0.0041064369131548 
H 25.3785320928 21.5722219705 16.7740207786  0.009558979950585 0.006924511481564 -0.0096706266464819 
H 24.3799627293 19.5007470656 18.4277111332  -0.0026807076284929 -0.010518395170777 0.0053390999603692 
