# total energy = -458.7179336139000156

ATOMS
O 19.5438290541 18.7930047459 15.4495812800  -0.015705381388061 -0.019101277985824 -0.021472108931579 
H 20.3639118446 20.4202823909 15.2973127747  0.0054756766993948 0.01047767574176 0.0078435236644493 
H 19.1940671049 18.4383200587 17.1926935004  0.0010744484496971 0.0029935575942599 0.010962156199745 
O 24.2503747233 19.1189882645 18.3143672177  0.0031066338692337 0.0014768967000736 0.014081484886893 
H 24.9934606009 18.1902745368 16.9097371681  0.0020004503557084 0.0021385551866018 -0.0055316153427271 
H 23.4888772389 17.8852084026 19.4266678907  -0.0011960501850913 -0.0034123985452443 0.002017813636899 
O 26.6525083306 18.5111085503 13.3956260311  0.0028544106036671 0.0003062797561731 0.0097601533330825 
H 25.4710757870 19.3397215669 12.2539363290  -0.0042439922693462 -0.0008009602108604 -0.011895067883385 
H 26.3420167911 16.7233250814 13.1527848165  0.0002835032707992 -0.0043606528993746 -0.0043865664073574 
O 17.6357758214 21.3428110432 20.7934826200  0.0013523480844626 -0.011009281219848 0.015427568257089 
H 19.1816572699 22.2974461516 20.7204409050  0.0077092251866881 0.0066105986570705 -0.0006593761641952 
H 16.8601564097 21.5506771968 19.1776737261  -0.0080397583746095 0.0037074900216654 -0.01694923919956 
O 22.6705443354 22.8175990849 15.3440343767  -0.001740815212998 0.017155575876175 -0.024102909857066 
H 24.0736455961 22.0635187776 14.3902401967  -0.0036734639665129 0.004243478167933 0.012308353758399 
H 22.8451815353 22.1350468216 17.0231547830  0.012222962725309 -0.0087477567406286 0.012364120448042 
O 22.5143811034 20.8226203154 10.0973802606  0.0043232663728703 -0.012547405166546 0.0052688180373914 
H 22.7166536660 22.5917049390 10.4665043492  -0.001201809672367 0.013143923702962 -0.0013310000844686 
H 21.3851957226 20.2419923494 11.4369186752  -0.0046261071155699 -0.0022695526149167 -0.0037016246845283 
