# total energy = -458.7010814066999842

ATOMS
O 21.8241773368 21.4120846433 12.7728420427  0.023340835282818 0.012320651544475 -0.03947863352752 
H 21.5503068104 22.4784498406 14.2098185435  -0.0072577777321418 -0.0069304879009468 0.016495973108588 
H 21.1717718829 19.7055745387 12.8984427254  -0.0044841868030171 0.0069949993012183 0.014068497558649 
O 17.5390841772 19.4064704921 14.0040669941  0.0094538760494196 -0.023277190781699 0.0049833239879272 
H 17.6300537291 21.0948316618 14.6264919345  -0.0035045508897755 0.019245878999255 0.0041462911835316 
H 15.8611372912 19.1021111157 13.4235524117  -0.017108788019171 -0.0011764535219699 -0.0038569567285546 
O 26.9044296818 20.4322745963 14.5107367277  0.021025936969378 0.0030314608081902 0.0038900799798896 
H 25.7220295982 21.3414712270 15.5317692721  -0.012013564751997 0.0034144682658343 0.023491364506156 
H 26.1786782670 20.9564545372 12.9396406564  -0.0048398473243754 -0.0037442034388845 -0.025774325517191 
O 19.9547595657 24.4593388081 18.3877245170  -0.0074151913471875 -0.021086303575909 -0.038028723804606 
H 18.7523775124 25.6681648294 18.9283885435  -0.0055774260759293 0.018391277138596 0.016210364698384 
H 21.4302373576 24.3170480595 19.4013172075  0.0094731175782963 0.0016304988571014 0.016722155770164 
O 22.1505350213 19.6832965511 17.8122819610  -0.0052912859468053 0.033508246000163 0.011183230136963 
H 20.5438686250 19.0498771810 17.2711738487  -0.014297155286499 -0.0032008328384478 -0.0045666194806084 
H 23.0623111289 18.2080493058 18.2145442964  0.018128242534703 -0.028835191723589 0.0019792499006994 
O 25.1127155814 15.8419905806 15.9105725407  0.018837062891211 0.0048465653205539 -0.0037985218656955 
H 25.2979862733 15.3057390659 14.1624790009  -0.0067343087843423 -0.008023258344298 -0.0005222000022951 
H 26.2501496191 17.3589724392 15.7808617025  -0.011736029015117 -0.0071459364636686 0.0028361567641571 
