# total energy = -458.7065382170000021

ATOMS
O 22.6115225025 20.1156017610 12.8627646860  0.0045119359522063 -0.0025175186598212 -0.0002503044360575 
H 21.6192156931 20.7851451459 11.4681142830  1.95654078154e-5 0.0033539500505343 0.0007187543131177 
H 23.2144738096 21.5597006416 13.8460102560  -0.0008387017593839 0.0016835060360353 -0.0028548018473012 
O 26.8161095267 17.7788149018 18.2271808986  0.028926357805057 0.011150234850225 0.0091901145198154 
H 25.6813381139 17.0249254569 17.0207113664  -0.0091989369902022 -0.012959647233276 -0.0010387000852982 
H 26.0571499452 17.6239329044 19.8806803908  -0.0039684700064576 -0.0074319773176799 0.0008174223172681 
O 23.8474528733 21.9036346738 17.5898989272  -0.015849955199192 0.040773634884453 -0.015555496502578 
H 25.5084602496 22.1426378536 18.3093027502  0.0012647481145894 -0.016484976331792 0.0044048385598943 
H 23.0442113269 20.3391602047 17.9815806830  0.012960566703529 -0.015763948068012 0.014792066157162 
O 22.4253693083 16.2595767095 16.2944402768  0.01264030462688 -0.0073239298070208 0.049858857275891 
H 22.5875040766 17.8919207118 15.5317182495  -0.013944044670197 0.006659768954864 -0.038173458540006 
H 21.5925497602 14.9884482899 15.3535019073  -0.011042201739367 -0.0041985907732092 -0.022705486237581 
O 18.3635171184 21.2831637108 17.4658497101  -0.016060026342928 0.014236940240775 -0.0057112311408769 
H 20.0095521903 21.9824816291 17.8149918290  0.0071957162866335 0.0040829040186089 0.0020787517368447 
H 18.4514479898 19.4890345398 17.6767998976  0.0048575613983266 -0.014105551825614 0.001336531994501 
O 19.3512073256 24.0067133674 10.9356819058  0.0028004043013758 0.0083836790465779 -0.012823223244275 
H 18.4524060812 23.5171418806 12.4131949333  -0.0075133730059602 -0.01483398669982 0.025853425837256 
H 18.3520767132 25.4635849105 10.4476014134  0.0032448892611861 0.0053043335849737 -0.0099469919008939 
