# total energy = -458.6982966808000128

ATOMS
O 23.0273152808 22.5129638084 13.8254821553  0.0057687133490997 -0.0034364020063524 -0.047061866411225 
H 21.6338308392 21.5754231674 14.5234186833  -0.004022748099945 0.011106534031568 0.017019801794894 
H 23.8576762946 23.5515405751 15.0063080966  0.0043421318691463 0.012050920974623 0.029672547351888 
O 24.3145196052 21.3419342101 18.8821885061  0.0095820531911617 0.021144337899011 -0.018900957912933 
H 22.6487350000 20.9488578360 19.5213715424  -0.0077112437346558 -0.007103485866922 0.0054210135467887 
H 25.4860405324 20.5434982386 19.9892300698  0.01087287215913 -0.0089310255882412 0.012788016588359 
O 18.4593791726 22.4130558494 16.2813539196  -0.0024534649749861 0.0084489403356719 0.0038442085983853 
H 17.9885008621 21.9682349798 14.5776406105  -0.0069999870632216 -0.0020673955642681 -0.0063029277317727 
H 18.5582836867 20.8470223558 17.2230368414  -0.0011389835843263 -0.0038619759917817 0.0030328704618038 
O 22.4524434222 17.5664776549 14.7123100914  -0.018938497668026 -0.018340834551197 0.02719944871788 
H 23.5240904056 18.6975244165 15.6644488709  0.016481488017145 0.0045590283020104 0.0031352597292472 
H 22.9007451684 17.7858106699 12.9656735309  0.0047851039085792 -0.0044295107402299 -0.022132475633701 
O 20.6323153918 18.2675133348 19.2225226090  0.0096505085659927 0.0079573297754521 0.016967953212877 
H 20.7801600470 18.0133772239 17.3889151582  -0.012417763090898 -0.015593632869323 -0.0036559121873009 
H 19.0010126289 18.1154734863 19.9778614742  -0.016177449167299 -0.0094585619843916 -0.0037218585817564 
O 24.5517577803 19.2963598989 10.4345263946  0.028950696364977 -0.051577318835057 -0.024727085505571 
H 24.4874938456 20.1812943290 11.9901682813  -0.0068777995887545 0.042907157770719 0.010454896697766 
H 23.3458003641 19.7737067438 9.1928153499  -0.013715440241552 0.016616682716867 -0.0030528388533003 
