# total energy = -458.7108960172000138

ATOMS
O 18.9512032135 19.4089403649 14.4948743621  0.013674960317484 0.025288013420066 0.012766533935806 
H 20.4024830555 19.9385570493 13.4342407057  -0.0092148389040594 -0.0078002566567767 -0.0073135168036583 
H 19.1426589807 20.7859293825 15.7814021643  -0.011680729664819 -0.015231443040866 -0.016456252190118 
O 22.1677069675 21.0721076987 19.6338858680  -0.015847795685582 -0.0079239112197709 0.050656387979547 
H 20.8137952919 21.2056943663 18.4482675799  0.0020276307003403 0.0073756643441937 -0.011983860414448 
H 23.7321871058 21.5647840063 18.8959646134  0.0081158001288939 -0.0008717474906443 -0.012334333595816 
O 21.8055729778 16.0107393922 17.5535594835  0.014023321418733 -0.011761266566259 0.015790661429812 
H 20.7066647976 15.9764389635 16.1225205038  -0.017454020253114 0.0024193543668451 -0.013788423678415 
H 20.9454695561 17.0335312721 18.8153847788  0.0007904271202108 0.0003735077213479 0.0015289422235754 
O 24.9185896305 19.4833370139 15.8109612688  0.018636979702258 0.0085962239226806 -0.035207162811624 
H 23.7920555362 18.1912250694 16.5106722502  -0.0069167151541182 -0.01258248594119 0.010748170189375 
H 24.9332557991 19.0435636042 13.9930461082  0.0060051555345145 0.0025930182507068 0.012267573257129 
O 22.6904072523 20.9425196927 10.4807321013  0.0068082200219739 -0.034015459055289 0.020807452060344 
H 23.4243884268 22.1667432069 11.5871160401  0.0034518533999873 0.019790667263704 0.0042606092564756 
H 22.0538490463 21.7498128131 9.0280897664  -0.01009484418115 0.017224900711805 -0.021797129631784 
O 22.7538019127 24.2345142475 15.5506778771  -0.0047890628874356 -0.0056046233613653 -0.041829763279599 
H 24.1513303695 23.0468871799 15.7446980033  0.0002042588591624 -0.0029254712250525 0.0065436834194086 
H 22.5023586623 25.2057676121 17.0196512298  0.0022731884347449 0.015053611537107 0.025325958532396 
