# total energy = -458.7184215505000111

ATOMS
O 19.4446354118 21.1559076276 12.9233776687  -0.0077121245352441 0.018722551553047 -0.012321860165068 
H 19.4322293563 19.5892939879 13.8400632862  0.0009734494568861 -0.012167449400474 0.011469709226453 
H 18.9942719739 22.4099793744 14.2069215926  0.0029309758300793 -0.0017905889196505 -0.0011119090651174 
O 24.3690930215 20.1319157713 17.8668005752  -0.0096703887750923 0.02781927364925 0.024609733345671 
H 25.3181345389 18.6045290777 17.7417838181  0.0061777594220162 -0.01526427159036 -0.01115583530799 
H 24.4160735161 21.0839203801 16.3030952249  0.0080847533352924 -0.0059618281307249 -0.019845164152723 
O 21.0047049281 25.0250965150 16.7007655245  -0.0049456129080283 0.0031194177445977 -0.0037497713389224 
H 22.2812663119 24.0873026506 17.5783300206  0.016589105853354 -0.013347157573707 0.0001729001675939 
H 20.2671994134 25.8648608086 18.1334051026  -0.013290855322577 0.011294809808567 0.0052526722832738 
O 24.1043309776 14.8372474801 15.8108289879  0.011631459465511 0.0063366926760395 0.032647938214219 
H 25.3461308395 13.8038712411 15.0023717959  0.0032594018580482 -0.0083915116504696 -0.012710944562497 
H 22.7032800704 15.1724415265 14.7434471177  -0.012984147844088 0.0034697877659105 -0.018763998387019 
O 19.7172700570 18.2737910067 17.4740284471  -0.020444395359022 0.012840561115867 -0.0095868382777355 
H 20.1367194564 16.6247890640 18.0852227419  0.0086265375768431 -0.0086573009468978 0.0083267108305524 
H 21.0930137448 19.4487398981 17.9354335579  0.0052728925057008 -0.014075090570422 0.0002348276093056 
O 24.4896556929 22.0209394564 12.6372012422  0.01904797238259 -0.010924251767085 0.030204922475528 
H 26.0943643324 21.8409184253 11.7616001722  -0.013260669496963 0.0098175095922605 -0.011485307117197 
H 23.0193255165 22.7315522710 11.8222717364  -0.0003143825551801 -0.0028279414264262 -0.01219074161022 
