# total energy = -458.7102916741999934

ATOMS
O 23.4236495437 21.6220294961 16.9177401605  0.01029103556693 0.011735099453566 0.0060723700071602 
H 23.8568542635 20.5725830216 15.5075732119  0.0066055977428904 -0.011624989039203 -0.012756965747566 
H 21.5971115604 21.4706699493 16.8076031111  -0.00966859248579 0.0059063095086371 0.0084834715023587 
O 22.8111532272 23.8998039711 11.4933345750  0.0079160267082346 0.054190136471443 -0.0096226886691562 
H 23.0440639282 23.1417457892 13.0948457970  -0.000265311045665 -0.026015273914018 0.013579563233365 
H 22.1254488998 23.0156046447 10.0984026027  -0.0070645310719786 -0.026665632603483 -0.002460472402376 
O 19.9666818513 17.8285884124 18.3367661478  -0.019020894368872 -0.0026757725009605 -0.0016797456283237 
H 21.7537358857 17.6896708259 18.5518189318  0.021075670700453 -0.0053129150704462 -0.0007339377850271 
H 19.4677108641 18.6839712969 19.8715038781  -0.0071053574679096 0.0029388106955478 0.0049020087161956 
O 25.9392801343 16.5109708270 17.8219743690  -0.0032040066063185 0.0038862803402509 -0.0024739880313408 
H 27.2813696799 15.5884988665 18.6629254110  0.0012953843865388 -0.0021933768455301 0.0003728997397643 
H 26.2586779555 18.2912823167 18.1810092070  -0.0009482811005661 0.0017382507986163 0.0015018563754267 
O 22.4981162260 17.7506050621 13.3239978317  0.020402960336107 0.026732312178468 -0.020829599104887 
H 23.8672250834 17.0184134588 14.2471652116  0.020693418641091 -0.0095275133730499 0.0086622415748908 
H 21.1943371090 16.6222662789 13.6967653133  -0.037808881543514 -0.021932203742381 0.0088956964379607 
O 18.5500161326 23.9657629906 15.4932679810  -0.0069849851784853 -0.0098977520308111 0.004520889779183 
H 19.5874666222 24.6709333923 14.1816616162  0.013005562239924 0.017129428629599 -0.0097708824305867 
H 18.1281894570 22.3875483189 14.6641277307  -0.0092289343212708 -0.0083950415267446 0.0033669871839519 
