# total energy = -458.7164393965999807

ATOMS
O 21.0698910493 18.5726286019 14.3316227654  0.0059299984656986 0.027540911394525 0.0038323007255155 
H 20.4332704823 19.3900922311 15.9119180261  0.00559668956735 -0.020489310981255 -0.015707096001443 
H 20.4007993090 16.8918112210 14.2381172003  -0.0089969996252636 -0.0091373241032709 0.0060194015728388 
O 22.0107991832 20.5156379984 21.0814013744  -0.032362028795422 -0.023757453865342 -0.0024567761347377 
H 21.8474001878 21.6658976109 19.6725723522  0.010329980324944 0.0071806816568255 -0.0068235984204044 
H 23.4018515466 21.0343358421 22.0529381980  0.026292096090476 0.012821773692702 0.014324312856973 
O 18.8916862723 16.7719742046 18.7877513058  -0.025782850763783 -0.007764112984126 -0.026047637076944 
H 17.7625027812 17.2482628026 20.1227846120  -0.0054566989098307 0.0044253442455229 0.0097608095476036 
H 20.5138767731 16.7539651095 19.5207819477  0.030138339416538 0.0049224983610637 0.017011050142833 
O 25.9700977968 20.6991040012 12.8159996202  0.000506962044494 -0.0092661742944865 0.0079061865664408 
H 24.3800213108 19.7160285066 12.9228693322  0.01563303239777 -0.0002719994779308 0.010528019195346 
H 26.3200373803 20.6209354578 11.0110668818  0.0015097369017302 0.0046997335682014 0.000412275277379 
O 22.2900251950 21.4982901942 9.6277170443  -0.013014830393257 -0.019338647488089 -0.013841904123623 
H 21.9534421995 20.5479674421 11.1772059809  -0.012239223492754 -0.0022576077567298 -0.0055787654072367 
H 22.5007372769 23.1603123537 10.2609436622  0.0048286604149868 0.025330690960332 0.0046550875376901 
O 23.1178596442 23.2469071883 16.7043597846  -0.025718313917524 0.011447616963711 0.020362574591889 
H 24.4757151793 22.8852966529 15.5746415009  0.01685601267405 -0.0085960791432722 -0.019569594573296 
H 21.6095875358 23.5751829454 15.7063781261  0.0059261273300234 0.0024848031809422 -0.0047972292796634 
