# total energy = -458.7130360505000226

ATOMS
O 22.1744117177 21.9740496687 14.1556627568  -0.0020394661216094 0.021001775588143 0.0003135250865568 
H 20.8184648065 21.1748200120 15.0742758955  -0.016311832619004 -0.006458611293743 0.010223794274915 
H 22.8969883917 20.5548365985 13.3120131852  0.013295205581065 -0.012118191758968 -0.01538092516808 
O 25.3340838320 17.2310171571 14.7478445116  -0.0035335450418826 -0.0030802720118077 -0.010906216907481 
H 26.4684754097 17.1488896363 16.1915333216  -0.00167006622684 -0.0022693948906572 0.0037550173330311 
H 23.7702216343 17.8380408251 15.5240705257  0.0058983146489951 -0.0089714572793924 0.001609718741654 
O 16.6611530742 22.6486272855 12.7888990502  0.0070333212388694 -0.018494307748596 0.0061516548738639 
H 18.3451943287 23.1783838098 12.2685684825  -0.0004719962969928 0.0041589485336434 -0.000435247558667 
H 15.4298393056 23.8878136554 12.3765417949  -0.008612733784487 0.017589065493868 -0.006923306996797 
O 27.1366922066 22.0684245080 16.2512959273  0.019090285233516 0.0067637730828234 0.017967520915339 
H 27.4476901928 20.7620281197 15.0119016875  -0.007670781311328 0.0011495367014784 -0.0067875925941778 
H 25.6628339104 23.0214231131 15.7685595819  -0.0079090389170654 -0.0014730345569058 -0.009815074674747 
O 24.1618221319 18.5005374194 19.7048280967  0.027856065947675 -0.013134116818285 -0.0065395771302444 
H 22.8992050411 18.1442955974 20.9174260124  -0.022473438327437 0.0011685940174884 0.012812355885577 
H 23.6769995283 19.8360072525 18.5829370608  -0.0058475457888662 0.016506944204723 0.001131702005183 
O 18.1077520632 18.9297718234 15.8444812404  0.037098245686312 -0.015776147012229 0.02652803042076 
H 16.8709921023 20.0313785333 15.1740723606  -0.026047350127719 0.01223180874934 -0.019147908560408 
H 17.7320517257 17.1520530387 15.6820138802  -0.0076798910115321 0.0011968854110549 -0.0045625301257536 
