# total energy = -458.7014417069000274

ATOMS
O 24.4879587184 20.6410440392 14.0978824743  0.010040210606638 -0.0040142852481341 0.010371631411102 
H 23.7074090098 21.9390991741 15.1338268518  -0.0036080204912919 0.0037627155403127 0.0022837884935971 
H 23.1044803794 20.0549736604 13.0835414521  -0.009423611879352 -0.0056252684526436 -0.0055693000933153 
O 20.5656552837 23.6325437085 17.0133225352  -0.013001067934499 0.0036270087480339 -0.011155958025664 
H 21.7277956078 24.6844827325 17.8843296797  0.023688130900464 0.020853451131664 0.0034714142746769 
H 19.5977883093 23.1456405159 18.4933375608  -0.0083597197436754 -0.015309747360364 -0.0010189437340544 
O 22.8027609511 15.2067721908 16.3048999138  -0.013361187801082 -0.015398120126466 -0.032196660116145 
H 23.7839693958 14.0249333560 15.2434914696  -0.0081423274299159 0.009528328684358 0.0062250942795098 
H 23.8328944191 15.4580642630 17.7365265985  0.017414111419047 0.0075864324086632 0.026040479968104 
O 17.6041436868 19.0610227889 15.7755421220  0.0050354879219174 -0.003243193774243 -0.003600786439912 
H 18.2650472415 20.4312711515 14.7230494081  -0.0012149888018889 -0.002313915299842 0.004477470934856 
H 18.6933972535 17.6079099120 15.4063292162  -0.0015611528627703 0.0027931517778388 0.0007604678055645 
O 26.4180631715 23.0651891826 9.8965042060  0.0099455016552826 0.018584417072579 -0.010239137281631 
H 27.6018748810 22.7476773086 11.2442893878  0.0056880630811641 0.0049827334073303 0.0098230320483508 
H 25.7272301260 21.4150666320 9.7474822510  -0.013524047584255 -0.018588091095823 -0.0058837196555479 
O 21.3580120045 19.9212887271 20.2769711899  -0.010085894575005 -0.011990660595452 0.018270159845397 
H 19.8025685392 18.9911803811 20.6842318524  0.0054238761392743 0.0038456596105574 0.0025161649093617 
H 21.5606681816 19.4449472167 18.5335131496  0.0050531886012567 0.0009029403714028 -0.014567359714355 
