# total energy = -458.7063303044999998

ATOMS
O 23.7794680669 19.6100715326 18.0455063566  0.0036553199236038 -0.029486061149942 0.038924388601081 
H 23.4747628705 21.2548820616 17.4382767084  -0.0040608394617665 0.021929171287987 -0.021990918723942 
H 23.6399835624 18.3599398659 16.7356328712  0.002311990271819 0.0023231682599794 -0.015343508307687 
O 26.9716094647 24.4378469467 17.0928044387  0.011534015419761 0.0032533706202489 0.0001591166828715 
H 25.2073209674 24.4077738366 16.6580425841  -0.010926187853002 0.0009646324577013 -0.0058367390352551 
H 27.0151015239 24.8256018505 18.8826061356  0.0001825221092978 -0.0006113780160017 0.0029393679291443 
O 18.7136948076 18.0305453906 13.3334389061  0.023310468221958 0.020759450951519 -0.05444167560775 
H 18.9085407444 16.2494628924 13.2459445615  -0.011049962466507 -0.018874234035369 0.011389979221004 
H 17.7341946758 18.6864355004 14.6776827401  -0.0074879899784941 -0.0051482284530859 0.031980604908701 
O 23.9852819773 16.8672202079 11.9814717592  0.010966483777605 -0.015346323653144 0.018732296252164 
H 24.3606232666 17.5324266702 10.3461476580  -0.002290536598674 0.0081844830694926 -0.012183825595378 
H 22.2961649169 17.3416096306 12.4786040423  -0.0093176924785335 0.010952327698374 -0.0046737329209834 
O 18.5766064765 18.9605120071 18.1358900932  -0.0011629305833824 0.010272745311933 0.0058178497001466 
H 17.7844840818 17.7026249021 19.1575745933  -0.0093904378011371 -0.011243936287737 0.011278983651042 
H 20.2724452946 19.1794897534 18.8772355325  0.0035926623877703 0.002017529849239 -0.0071953997629761 
O 21.5077426070 23.4442022109 14.8861743931  0.0009910620405584 0.0059309870838655 0.001539282664115 
H 21.0893249983 24.9764946349 13.9998169989  0.0012385682739454 0.017240336101241 0.0021925105139386 
H 20.8949288165 22.2454729992 13.6677145453  -0.0020754711331712 -0.023117177672045 -0.0032863185586469 
