# total energy = -458.7123829156000170

ATOMS
O 19.8511685295 18.5634483097 15.1836872898  -0.0051349614103628 -0.0029660366823267 0.0004294564506985 
H 21.2407506856 19.7409615602 15.0457712585  0.0054280493030722 0.0068410571921868 -0.0034159672280639 
H 19.7096015462 18.4469523301 17.0113647784  -0.0048599346341129 -0.00603372438417 0.0020967850467008 
O 24.5120168285 18.6463619568 18.4680019954  -0.0057711153600695 0.0059825132398722 0.026557255223702 
H 25.1132012412 19.4481408548 16.9587604572  0.011614461095847 -0.002248961376394 -0.016065210331239 
H 23.8084923787 17.0945788920 17.8354632380  -0.0022933019312148 -0.0094077570274978 -0.003889147452128 
O 25.8614838670 18.7352603682 13.4871303756  0.01484323675951 0.0003801922449519 0.026225656202783 
H 24.6534080672 19.2941356906 12.2606561970  -0.0096063741970618 0.0013504729007354 -0.025518627735158 
H 27.1369416505 17.6667956846 12.7334620288  -0.0017173923461081 0.0007334858577388 -0.0048675326757805 
O 17.8562918052 21.4527496713 20.2404200968  0.0014300199087074 -0.026501302026069 0.000105503158761 
H 18.8080053962 21.6713532518 18.6908820273  -0.0052922981225791 0.012279384689867 -0.001313960715977 
H 17.4817442011 23.0299438906 21.0342885990  0.001805024911033 0.016388118525396 -0.0011811793726894 
O 22.5889043641 23.5252866026 16.3637648994  -0.021748021232367 0.0077600980359734 -0.0039255141344653 
H 24.2519280787 23.1968180934 15.7519299873  0.01887465980182 -0.0020808515136024 -0.0046984401631083 
H 22.4802148453 22.7199625774 17.9995463144  0.0064857230541063 -0.0040837703228668 0.0087445538778401 
O 22.5369217630 20.4283987669 9.8518764211  0.023306914410529 0.0095172537896314 0.012015919208779 
H 22.2201487721 19.5875856750 8.2946037003  -0.0083953013895659 -0.0092875643561322 -0.014748905871688 
H 20.9738249047 20.8474040806 10.6502103474  -0.018968666391898 0.0013624846583584 0.0034431505767229 
