# total energy = -458.7121027283999979

ATOMS
O 21.6613490388 21.3353995353 18.1772769969  -0.0010879828673344 -0.03003587927973 0.01218939792883 
H 20.8621307205 22.9439159740 17.9984313757  0.0012574374450252 0.014081508459141 0.0002143797477062 
H 23.4198946568 21.5875854482 17.7293210707  -0.0011185749710179 0.0041829964543884 -0.0031695069749181 
O 24.5738071110 15.6824069433 14.7195609727  0.021678028047116 -0.0051664082879043 -0.013639490223664 
H 22.9280214830 16.2088299897 14.2120616491  -0.018637111012716 0.0054721482366756 -0.0024349386457884 
H 24.4340372578 15.5549486593 16.5274530230  -0.0038728626533373 0.0015264635625315 0.013776709395067 
O 25.0145745169 20.6660243360 11.8999848557  -0.018630056833889 0.001878024175869 -0.0074309075316027 
H 25.4441018286 18.9312061260 12.2857177520  0.005763133241423 -0.0066245189317585 0.0065629324350527 
H 26.4766995002 21.6785493309 12.2376015317  0.010444593447709 0.0045247615827479 0.0039626277074354 
O 18.4127426083 22.4152176967 13.8385817405  -0.0062781034301406 0.021498324290142 -0.012896233774014 
H 20.1303869824 21.9162372609 13.4873250175  0.011129217632676 -0.0084431236621236 -0.0013600648471839 
H 17.7052270558 21.1246666664 14.8797360944  -0.0023842060284971 -0.013011064087788 0.010990038348292 
O 22.3789009297 25.5993976761 15.6865076502  0.0087283543831973 0.0004535557046865 0.0055320744092205 
H 22.9080017187 27.2057617161 15.0326074226  0.0023629652205511 0.011179772838022 -0.0039170302455851 
H 20.6563772814 25.3585784690 15.1281973561  -0.010783477886657 -0.0012689848775295 -0.0076524048747378 
O 21.3058687767 15.5907740974 19.0340091462  0.031249233553817 -0.0034452625719751 -0.005701038185999 
H 20.1339604555 14.3329890377 18.5119475890  -0.018130472875503 -0.0086292326283064 0.0004603624930559 
H 20.5498911839 16.8900046423 20.0296116389  -0.011692899122676 0.011805843176708 0.0044972063353007 
