# total energy = -458.7186216393000109

ATOMS
O 20.2433907471 18.7391569846 13.9224799352  0.0023303733527797 -0.018019059270733 0.019995207197227 
H 19.3323535227 19.9438596223 14.9871689449  -0.0001063626881875 0.0004058083359256 -0.011529817266942 
H 19.7002436198 18.7550099016 12.1830885866  -0.0065971180324684 0.013469016583021 -0.0034606612184719 
O 20.8378760788 21.2829029286 19.1359466716  0.0001435156772045 -0.0042378878213314 -0.0090758664248516 
H 21.7601288310 19.7098150853 19.3927472971  0.0038815916905642 -0.010848819006351 -0.0091741471841301 
H 21.2208802097 22.1260989658 20.6874840720  -0.0019824723964096 0.015756534010329 0.013440199033245 
O 21.7041324505 15.8270315044 18.9975147449  0.011634922708437 -0.0037441360813034 0.013982751848052 
H 20.1401493103 16.1657744574 18.1541013891  -0.013936760726843 0.0021779584518419 -0.011474428538908 
H 22.7014942787 14.8939770745 17.7732912307  -0.0025035995503321 -0.001921013617307 -6.87997906192e-5 
O 25.1311706520 18.7912832049 15.5347077970  0.0083149871034689 0.029353551227974 -0.014403043542184 
H 24.9894487112 17.0776450514 16.0284612489  -0.0022014477649133 -0.018262182074949 0.0035099339900366 
H 23.7221564366 19.1239185614 14.3428401828  0.0003942075441505 -0.0090956225761599 0.0097084157442683 
O 21.3280655061 22.7792735384 10.9138612320  -0.022597326555572 -0.0042654866285103 -0.0072694530440196 
H 21.3713629234 23.5824489444 12.5858781558  0.01085573977061 -0.0014049265302103 -0.0070249675635634 
H 22.8684705267 23.2866689270 10.1046632671  0.0092073874882413 0.0058424607024852 -0.0020099623312946 
O 24.0555665811 24.0570122220 14.9135357455  -0.0096150211449647 0.023656288792922 0.0056200199124211 
H 25.3658690345 22.8903743484 14.5453092770  0.021913444539264 -0.014626087874205 -0.0072066643875338 
H 23.2228717549 23.2023908973 16.2888277886  -0.0091518216311221 -0.0042443242347253 0.016457564889115 
