# total energy = -458.7204762101999904

ATOMS
O 24.7203818699 19.3737064112 13.7753873911  -0.0037734710973793 0.009037955842485 -0.012533518561485 
H 23.7336554234 20.2272487020 15.0726337230  0.0016481679466977 0.0056783512092723 0.011441741098526 
H 24.3624355145 20.6493172625 12.4692158802  0.0066367396208367 -0.0053384832874195 -0.0047391706092481 
O 22.5179564662 22.1417610204 17.8891333649  0.029397808981214 0.011538455428217 -0.019502952193285 
H 20.9274925863 21.6530606977 17.2034706115  -0.027266786242828 -0.0048889059620563 0.0050008778930527 
H 22.5858430069 22.0164626940 19.6710813579  -0.0069647600045312 -0.0071766313312759 0.022846927149628 
O 24.7486578500 16.5845548936 18.2139471428  0.0012232761149223 -0.011703266764018 0.016876966855864 
H 25.0257919344 18.0600307957 17.1892050649  0.010859604313311 0.0070742370454774 -0.0035351449639916 
H 26.3756274696 15.7421279751 18.3308758698  -0.0003285733177867 0.0003287871896578 -0.0015641555900369 
O 20.3280202660 17.0136551271 15.7926290304  -0.0095930772604325 0.0030432685751849 -0.012517430914875 
H 20.7265806269 16.4594323117 17.4595682587  -0.0084314330030797 -0.0069725191336889 0.026408987606187 
H 22.0586602904 16.9611622998 15.2164608194  0.008021491210391 -0.0018964546521119 -0.022661522833391 
O 22.7791998391 24.5799392740 13.2665898253  0.0054431563935514 0.0022323609083458 -0.02017313803033 
H 24.0463541636 24.8971393431 14.5385100405  -0.0016628835267685 0.0013670522453127 0.0087981357046799 
H 21.1513949603 24.4616064801 14.0954466167  -0.0033130623308728 -0.0012947654547706 0.0029393589184769 
O 18.1933056584 21.6645955892 14.3535983967  0.016973120588198 0.0069833406331068 0.0067296609759882 
H 16.5682389936 21.4968615609 13.5839032780  -0.012233979777085 -0.002842936665839 -0.0052830416894232 
H 19.0346308663 20.0136850226 14.2555952822  -0.0066455622876359 -0.005149914642784 0.0014451165339999 
