# total energy = -458.7096424230999787

ATOMS
O 23.7879000273 22.4760744542 14.9461618763  0.0072228977026086 0.0071261170511898 -0.0032524009526803 
H 22.8537854608 22.6259448964 16.5014730608  -0.0053188595335715 0.0036092569132381 0.0047260340464858 
H 24.0406774247 20.6646467252 14.7459094315  0.002880477002745 -0.0048052861239023 0.002882843954708 
O 26.4606160365 18.5038897945 17.7655036671  0.010205760158259 0.0013517430108937 -0.0039822417774373 
H 24.9831256858 18.7973737939 18.8127108155  -0.0089616687646734 -0.0010050075209537 0.0020560087272397 
H 27.2137099065 17.0208360884 18.5061990404  0.0061852868717257 -0.0069727665882379 0.003640313997368 
O 20.8043693353 22.7144464652 10.6660122417  -0.030556215636042 -0.017374896214792 -0.025590251367332 
H 20.9838423457 24.4620864706 11.0624957930  0.012227405887013 0.010659299635441 0.010749472277287 
H 22.1416117320 21.7296324221 11.3856088168  0.0096458110955256 0.0075060789298492 0.012090226620392 
O 22.7872462952 17.2767731088 13.8809985452  -0.015069087629717 0.007453180608121 -0.012706092962007 
H 24.1105614064 16.8634388649 12.6946394842  0.0054763927559355 -0.004606679513688 -0.000904159358493 
H 23.1002965246 16.3313938817 15.3985170861  0.0095504489167174 -0.0067484927288072 0.008613957826445 
O 21.3164285693 18.4117920758 19.1254605784  0.0098450414240703 -0.0023469148032648 0.0095410239778725 
H 20.8493032559 18.9666592879 17.4461209637  -0.0081150850998158 0.0013603554013893 -0.0037791128189345 
H 21.2054090175 19.9703006778 20.0911468082  -0.0067883253777114 -7.64085418006e-5 0.0024559587672009 
O 18.1556812005 22.0465206863 16.8986104575  0.032052375370493 0.0008675680611562 0.01953046684365 
H 18.2139811578 21.5669420742 15.1694028460  -0.0053103281065 -4.20867025893e-5 -0.026261204679027 
H 16.5080096254 22.5073739969 17.4072851911  -0.025161289686615 0.0040469097351433 0.0001815459455346 
