# total energy = -458.7192450234999797

ATOMS
O 21.4350580503 18.9174621440 12.4344392404  -0.000816750389838 -0.034348647185433 -0.042595601793527 
H 20.4496222871 19.2675094419 13.8662813539  -0.010011576167255 0.014275796578699 0.034417414378639 
H 23.0123996683 19.8186349953 12.3601389675  0.0039837175505474 0.020419159534683 0.012800823601088 
O 24.3653456936 23.0936465764 13.5877658793  0.034414836331983 -0.0022738523556073 -0.016430691240271 
H 25.3565318950 24.0319771231 12.3069072571  -0.0076616343554457 -0.0066099670812211 0.012556830112912 
H 23.1354114254 24.2650597893 14.2571278506  -0.017120204006135 0.0071194868894593 0.0023361174288163 
O 23.7434120821 15.2933972610 15.2494516675  -0.0064922658469381 0.0018473048861554 0.034639885655451 
H 25.2256078523 14.3474643440 14.7716928621  -0.0017291617871468 0.0051574238736239 -0.015689923755575 
H 22.8169509086 16.3415568317 14.0318270788  0.010461997943301 -0.0072731251398544 -0.018076695011132 
O 24.6385869410 19.3202006905 19.1940595460  -0.0022886814502136 0.0062765177057321 -0.034791202650117 
H 25.0913030886 21.0019478169 18.5075747615  0.0036236871112481 -0.0098073834811636 0.0060078282518126 
H 24.4810631058 18.3013035372 17.5626547379  0.0025728167019072 0.0028768029021498 0.024962611856978 
O 19.4104067928 20.6075618622 18.3682414351  -0.03422389939851 -0.0038294237401377 -0.0091180670295182 
H 18.8885436568 19.0255507297 19.1831633820  0.012389168294546 0.0099122062975471 -0.000386191923549 
H 21.1580486879 20.9621350555 18.6543347136  0.022062248585509 -0.014902011994211 0.013739683301396 
O 19.5821111369 24.0669106102 14.6832536543  0.0010643460652834 0.051147563513886 0.026326820407784 
H 19.1784711907 23.5277224602 16.4141771376  -0.0054497871916164 -0.0085353625287053 -0.01228154848681 
H 19.5900687758 22.6843034352 13.5838503657  -0.004786600491079 -0.031453528686613 -0.018438230340162 
