# total energy = -458.7178008504999980

ATOMS
O 20.8117279309 19.1450438158 14.4429087686  -0.004412979300215 -0.0006550084121919 -0.003251231739464 
H 21.8900721055 20.5266569945 14.9438129461  0.011090126857276 0.0048341421047019 -0.0016067178442996 
H 19.5225280552 19.3652820098 15.7349583521  -0.012125204401975 -0.0054181325282371 0.005795108117361 
O 24.0080323966 18.5267403693 18.6941285777  0.0086763242323305 -0.0045499041046645 0.019975352905014 
H 24.7540208943 18.5780143228 17.0349825822  0.0036681288484674 -0.0013476508642778 -0.012376328697748 
H 22.4115440681 17.6997166128 18.4363868683  -0.0081351982787153 -0.0055486166494393 -0.0015852837365672 
O 25.9914403697 20.3148696582 13.7769747615  0.0055430246762888 0.0085958216498731 0.0332623139003 
H 25.0535954828 20.4980389739 12.2605579312  -0.0064559625055404 -0.00527298601111 -0.025084784310379 
H 27.5322101075 19.3899070379 13.5096521380  0.005324343010524 -0.0034118791880142 -0.0099500085897886 
O 18.1161859133 21.2661618400 18.4739243988  -0.00481949458173 -0.014580469541276 0.0047334639789029 
H 17.1830540046 22.0833854740 17.1398359559  -0.0039762644626338 0.0094380681544918 -0.0028307092128672 
H 19.6474862308 22.2345050256 18.7443197179  0.0082423732129207 0.0093372136514731 -0.0014501604672818 
O 23.5994375871 23.6152508198 18.7866042417  -0.017324163792275 0.018026024614294 0.012219105353971 
H 24.7352105550 22.7322665877 17.7006614761  0.01215445490491 -0.0081887346508829 -0.013275302449843 
H 23.5712409756 22.5231362070 20.2669839845  0.0021591111144399 -0.0021028435187502 -0.0002754660285745 
O 20.6918852454 18.4420088051 9.2864286294  0.0062628991206543 -0.0039418293980664 -0.015333465974886 
H 20.9406620914 17.5745146624 10.8813673820  -0.0028617474428142 0.0041243158779109 0.0061002811510335 
H 20.4473678432 20.1968146541 9.7390162756  -0.0030162179737215 0.0006404803509465 0.0049379011563697 
