# total energy = -458.7189295260999984

ATOMS
O 22.5341117395 23.2422546813 15.6071693660  0.022843077269352 0.019751920982714 -0.011790555745304 
H 20.8450400325 22.6176527758 15.4463158324  -0.0077788988775597 -0.0057843632057418 0.0054086912460787 
H 22.9724527363 23.2587047519 17.4027649649  -0.00616560153514 -0.0045770420234438 0.0002341145403977 
O 20.0474790045 19.6548788415 11.9778037997  -0.02548951044839 -0.012364671320017 0.0055387298037873 
H 20.5522287758 21.2544568731 11.3110647691  0.0088225208625254 0.012099565381165 -0.0065621324027449 
H 21.5255287143 18.9850538873 12.8031570378  0.015251702924936 -0.0026487333269051 -0.0023229948931252 
O 25.2594566363 20.0024298105 11.8913355768  0.018435169289636 -3.55948014562e-5 0.0004467222690441 
H 25.5158963240 21.3943344407 13.0766023758  -0.01190686395592 0.0056347817722735 0.0038561847019987 
H 26.9678923724 19.3317185745 11.7377726087  7.82339575902e-5 -0.0020574390808471 -0.008341468238726 
O 23.7608107955 17.4655473538 16.1976749332  -0.014730700484073 -0.0059417316306337 -0.032170330507349 
H 24.2982641765 17.3179294658 17.8785338881  0.013936111611931 -0.002144879811883 0.033552467582157 
H 25.2444181915 17.5827935550 15.1156892553  -0.0038129748859741 0.0024634026910758 0.0026654216805759 
O 18.5758543653 19.7140990957 17.2897895461  0.0056337852622871 -0.013183501313298 0.040339998517096 
H 17.4660538006 21.0575057808 16.8945418760  -0.017528479721317 0.015901314487582 -0.0092356678950737 
H 19.3233074011 19.1336865585 15.7655681446  0.0044378835573637 -0.0072664917821404 -0.026316713959729 
O 22.9791839427 21.2282425848 20.3434952377  0.010865669579191 -0.0063274766808843 -0.0092807804553374 
H 21.7828565736 20.1452081086 19.4586004919  -0.0066939605692896 -0.0008892778801073 -0.011259328077698 
H 22.1761975094 21.3648282486 21.9416351873  -0.0061995551257592 0.0073775001784714 0.02524934945548 
