192
Atoms. Timestep: 0
O 5.32844 11.089 10.0019
H 5.86316 10.3509 9.41572
H 5.96401 11.7784 9.8218
O 6.9247 8.40214 3.01919
H 7.6241 9.00299 3.45873
H 6.60639 7.81452 3.71265
O 5.69962 7.65821 0.31953
H 6.13806 7.65816 1.24465
H 6.41103 7.67823 12.151
O 11.1715 12.1412 12.0659
H 10.6412 0.436178 12.3939
H 12.1178 0.0320417 11.981
O 0.590524 0.488715 9.28944
H 0.711441 12.2395 9.87905
H 1.50023 0.59227 8.89877
O 2.95209 10.4619 5.00881
H 3.43846 9.63499 5.12432
H 2.76819 10.483 4.02109
O 0.363123 12.1718 5.10399
H 0.70825 12.2874 4.2295
H 0.373619 0.590692 5.53997
O 8.2018 10.6116 6.66702
H 9.19094 10.6698 6.78999
H 8.09787 11.3724 5.99186
O 7.57859 2.0759 6.99389
H 7.05411 1.76 7.7966
H 8.10623 2.80823 7.39276
O 0.426544 3.27486 10.7773
H 1.40213 3.28404 10.8961
H 0.313217 2.34853 10.4508
O 10.448 9.53103 3.1477
H 10.4764 9.83409 4.10271
H 11.2796 8.99718 2.94224
O 2.25761 11.9247 2.74555
H 1.32734 11.7655 2.43254
H 2.40335 0.435839 2.74786
O 7.0319 6.03522 7.54949
H 7.47938 5.64102 8.29431
H 7.76607 6.54414 7.08972
O 0.266789 7.47076 10.1055
H 0.123254 7.2096 11.0357
H 12.2951 8.30438 9.87232
O 7.84507 10.9853 3.59835
H 8.58226 11.5493 3.79944
H 7.01324 11.5962 3.52053
O 1.34116 9.74314 7.68165
H 1.75901 10.1144 8.46842
H 1.8 9.92589 6.82939
O 9.4633 1.15342 1.06974
H 8.92068 0.342888 1.10957
H 9.68834 1.45163 1.94878
O 11.4211 4.9739 5.58615
H 10.8471 4.6999 6.34259
H 10.7439 4.92327 4.88333
O 6.15117 1.31097 9.64935
H 6.75002 1.84917 10.165
H 5.42207 1.95591 9.55946
O 2.51595 2.14132 2.64863
H 3.11771 2.70324 3.10044
H 1.6438 2.35684 2.97498
O 11.0742 10.3752 5.80583
H 11.5205 9.53958 5.95472
H 11.8116 11.0189 5.59225
O 4.21013 9.23008 2.80092
H 3.83379 8.45787 2.45023
H 5.09786 8.94287 3.05488
O 11.0297 9.5164 10.8363
H 11.0863 10.4516 10.9584
H 10.2413 9.21191 11.3105
O 5.15027 8.60489 6.09172
H 5.93511 9.00682 5.68412
H 5.29863 8.72725 7.04707
O 6.72777 9.46581 8.62012
H 7.41247 9.92324 8.09299
H 7.11737 8.65867 9.0094
O 3.04489 0.1898 8.52657
H 3.37524 0.413498 7.62818
H 3.76663 12.2303 8.93167
O 1.75703 11.7742 12.1599
H 2.16497 11.4456 0.513969
H 2.02866 11.1616 11.4708
O 8.18935 4.93334 10.0079
H 8.04764 4.21858 10.6363
H 9.12334 4.95103 9.82588
O 1.9079 6.14938 3.7696
H 2.55339 5.48638 3.45737
H 2.02292 6.21277 4.71299
O 5.7388 2.11916 4.4621
H 6.35844 2.53198 5.11872
H 5.04446 2.73892 4.58482
O 4.31988 1.04431 11.8285
H 3.67712 0.353638 11.9955
H 5.13347 0.699747 11.3172
O 0.72594 2.66108 6.02488
H 1.39634 2.91887 6.70859
H 0.0403673 3.41107 6.09445
O 5.71906 0.082773 2.90651
H 4.97272 12.1228 2.41207
H 5.38866 0.718657 3.55312
O 8.99185 4.99164 1.25438
H 9.81977 4.55797 1.0446
H 9.11489 5.77419 0.633601
O 10.5091 0.562494 7.97541
H 11.4152 0.453795 8.34845
H 9.9033 0.329767 8.67613
O 7.49542 7.55478 10.5709
H 7.77152 6.68541 10.3756
H 8.1076 7.91945 11.187
O 12.168 11.0112 1.98624
H 11.5143 10.62 2.59554
H 11.7014 11.3622 1.2143
O 8.86288 12.0291 10.0695
H 8.88998 0.0511078 10.951
H 9.3671 11.1901 10.2227
O 2.88209 8.06622 12.2061
H 3.86131 8.20503 12.304
H 2.84272 7.14332 11.9396
O 9.98468 3.44167 7.47336
H 10.3754 2.49628 7.65177
H 10.2169 3.9629 8.26763
O 4.09398 4.32627 3.21022
H 4.55458 4.75966 3.95412
H 4.72875 4.37683 2.4598
O 9.05675 0.629068 5.52182
H 9.93468 0.540884 5.99667
H 8.51142 1.08095 6.22699
O 9.196 5.46657 3.92493
H 9.12556 6.40404 4.23408
H 9.16772 5.6086 2.96836
O 3.87153 0.415757 5.86108
H 3.53683 12.0167 5.49786
H 4.8033 0.350665 5.67572
O 5.52461 2.68522 0.900356
H 4.91828 2.07766 0.396122
H 5.78572 2.22442 1.68488
O 11.0059 5.11137 9.52978
H 11.702 4.72815 10.0653
H 11.3113 6.02012 9.29794
O 3.25638 3.41483 7.20834
H 3.42162 4.17426 6.69501
H 3.39886 2.58511 6.7216
O 0.456234 8.38667 2.65647
H 1.12081 7.74641 2.94875
H 0.877346 9.19726 2.3151
O 7.62081 2.67525 11.5825
H 8.21169 2.09331 12.0578
H 6.90527 2.84542 12.2013
O 6.24023 5.14419 4.99198
H 6.26753 5.2303 6.01218
H 7.11977 5.17515 4.58769
O 11.9166 4.11258 0.729083
H 12.4212 4.07516 1.55808
H 12.4544 3.77241 0.00327049
O 9.06764 7.84985 5.58093
H 9.91199 7.69235 6.08187
H 9.14963 8.81258 5.58997
O 2.78587 5.07509 11.5388
H 3.34705 4.93241 10.7848
H 3.40697 4.9465 12.2893
O 10.0524 2.29038 3.48696
H 9.78066 1.74961 4.29062
H 9.44777 3.03578 3.55714
O 11.9812 7.65656 6.60336
H 12.1232 6.84893 6.14695
H 0.373289 7.72584 7.08765
O 2.38387 6.94027 8.65901
H 2.19352 7.89428 8.51994
H 1.88396 6.77642 9.44555
O 9.42074 7.78863 0.357096
H 9.38692 8.22545 1.17897
H 10.3999 7.50853 0.31107
O 8.21302 11.1486 0.353738
H 7.21968 11.1958 0.251597
H 8.35467 10.9497 1.36831
O 0.0433324 3.5526 3.23586
H 11.6783 3.11587 3.41429
H 0.318931 3.97558 4.04295
O 2.59632 9.97743 10.2814
H 3.56626 10.1883 10.1268
H 2.56857 9.08787 10.6409
O 5.46566 10.6864 0.27756
H 5.47528 9.68975 0.409234
H 5.35435 10.8616 11.7843
O 3.4577 6.20517 6.12252
H 4.14153 6.8761 5.96156
H 3.06874 6.30031 7.00355
O 4.66234 4.05228 9.5158
H 5.27675 4.60134 8.99257
H 3.94099 3.75141 8.89279
O 11.9196 6.78137 0.488091
H 12.4645 7.15443 1.21459
H 11.8972 5.78507 0.632626
192
Atoms. Timestep: 20
O 5.33136 11.0939 9.99506
H 5.8368 10.2954 9.53647
H 5.82846 11.9065 9.90825
O 6.9185 8.38853 3.02715
H 7.54375 9.12312 3.37467
H 6.81108 7.72547 3.72712
O 5.69366 7.66352 0.32182
H 6.24475 7.71785 1.18424
H 6.37118 7.5787 12.1159
O 11.1839 12.1562 12.0619
H 10.5853 0.319968 0.0140681
H 12.1643 12.4285 11.9628
O 0.578728 0.497385 9.29809
H 0.648435 12.2456 9.88745
H 1.49675 0.500686 8.8992
O 2.94792 10.4519 5.02398
H 3.57304 9.71387 5.09887
H 2.81104 10.5984 4.04032
O 0.357712 12.1862 5.11301
H 0.792715 12.233 4.26027
H 0.4048 0.614025 5.5134
O 8.2178 10.6117 6.66313
H 9.19695 10.6701 6.81503
H 8.03525 11.3637 6.01063
O 7.55756 2.08954 7.01208
H 7.05598 1.70752 7.78957
H 8.20887 2.77182 7.299
O 0.432376 3.26348 10.7763
H 1.38673 3.44275 10.8971
H 0.281152 2.36791 10.4078
O 10.4377 9.52251 3.15099
H 10.5402 9.77204 4.12615
H 11.2226 8.87986 3.10641
O 2.24939 11.9227 2.73908
H 1.3355 11.7848 2.36771
H 2.42729 0.427592 2.70512
O 7.03553 6.03448 7.55082
H 7.45328 5.5811 8.28167
H 7.71677 6.59873 7.08938
O 0.259721 7.45518 10.1083
H 0.0579237 7.33602 11.0697
H 12.2904 8.33608 10.0573
O 7.8476 10.9856 3.59528
H 8.54842 11.5835 3.87175
H 7.03286 11.6003 3.39942
O 1.33486 9.72567 7.67926
H 1.84623 10.1528 8.39261
H 1.84607 10.101 6.91026
O 9.45908 1.15537 1.052
H 8.91617 0.343918 1.14925
H 9.66038 1.46707 1.9361
O 11.4176 4.97644 5.58989
H 10.9121 4.58945 6.34422
H 10.795 5.04721 4.84365
O 6.15708 1.32366 9.6404
H 6.77197 1.73794 10.239
H 5.39961 1.92538 9.54447
O 2.50667 2.12692 2.64955
H 3.10368 2.76055 3.03248
H 1.65896 2.48333 2.9445
O 11.0667 10.3618 5.79818
H 11.5514 9.57757 6.08216
H 11.7627 11.0521 5.60252
O 4.20151 9.22444 2.8009
H 3.81928 8.45808 2.41199
H 5.14797 9.05916 2.94311
O 11.0204 9.52191 10.8241
H 11.1381 10.423 11.1463
H 10.304 9.21632 11.4117
O 5.15115 8.60676 6.09383
H 5.94292 9.00993 5.69571
H 5.35294 8.73618 7.04386
O 6.72292 9.45102 8.60937
H 7.37184 9.90034 8.0309
H 7.12724 8.73162 9.1308
O 3.06157 0.195617 8.51923
H 3.36995 0.289039 7.58438
H 3.73395 12.2341 8.99857
O 1.76192 11.7838 12.1572
H 2.1238 11.4176 0.51024
H 2.03158 11.0829 11.5451
O 8.19377 4.93654 10.0022
H 8.01562 4.22172 10.6247
H 9.14973 4.96433 9.95345
O 1.89265 6.15306 3.76431
H 2.57417 5.52698 3.43504
H 2.2066 6.23583 4.67693
O 5.74299 2.13856 4.47993
H 6.44982 2.39413 5.10658
H 5.01135 2.72759 4.45718
O 4.30941 1.05144 11.8288
H 3.68241 0.326455 11.961
H 5.03395 0.602037 11.2813
O 0.722372 2.65873 6.02995
H 1.40167 2.92572 6.69687
H 0.00165771 3.36607 6.04207
O 5.72491 0.0704956 2.89552
H 4.95202 12.1125 2.4641
H 5.35551 0.71465 3.52231
O 9.00479 4.99179 1.24577
H 9.78965 4.4851 1.06929
H 8.98219 5.84242 0.731411
O 10.515 0.573132 7.97797
H 11.4219 0.438296 8.34668
H 9.922 0.272592 8.67176
O 7.49632 7.5614 10.5748
H 7.73515 6.656 10.4674
H 8.20066 7.83916 11.1544
O 12.1907 11.0316 1.98163
H 11.4118 10.712 2.49928
H 11.7403 11.3373 1.17462
O 8.85685 12.0372 10.0538
H 8.91143 12.4529 11.0037
H 9.33404 11.192 10.2826
O 2.88678 8.05898 12.2007
H 3.85412 8.14302 12.4004
H 2.77459 7.13523 11.9498
O 9.98309 3.44151 7.47977
H 10.344 2.47611 7.62679
H 10.3087 3.94578 8.25942
O 4.09747 4.33867 3.22056
H 4.6823 4.73965 3.90018
H 4.69151 4.26008 2.43635
O 9.07544 0.62266 5.50903
H 9.87454 0.403433 6.06942
H 8.46575 1.15017 6.10435
O 9.18917 5.47585 3.92366
H 9.15991 6.37971 4.30879
H 9.14954 5.42345 2.95786
O 3.87052 0.409964 5.86467
H 3.44814 12.048 5.52704
H 4.80339 0.461329 5.6753
O 5.53082 2.70017 0.907038
H 4.93781 2.05177 0.431903
H 5.7876 2.15767 1.65323
O 11.0027 5.113 9.52864
H 11.6967 4.66207 10.0277
H 11.3889 6.00808 9.35849
O 3.25016 3.41251 7.20954
H 3.44241 4.13167 6.63204
H 3.53099 2.64877 6.66664
O 0.459538 8.37412 2.65494
H 1.1254 7.77762 3.03601
H 0.897267 9.16345 2.29187
O 7.61781 2.67089 11.5814
H 8.26625 2.22479 12.1392
H 6.92484 2.81435 12.2381
O 6.22831 5.14164 4.98308
H 6.43174 5.33347 5.98856
H 7.159 5.14679 4.67877
O 11.9112 4.12187 0.727621
H 12.3751 3.93166 1.56261
H 12.4071 3.74569 12.5156
O 9.07587 7.84908 5.59413
H 9.91448 7.61077 6.04113
H 8.95046 8.79766 5.53537
O 2.79016 5.07932 11.5371
H 3.38592 4.93075 10.8042
H 3.38324 4.87301 12.2883
O 10.0457 2.29645 3.49626
H 9.76312 1.68481 4.24292
H 9.46998 3.065 3.5051
O 11.9881 7.64845 6.59876
H 11.9996 6.83278 6.13822
H 0.283601 7.86941 7.1624
O 2.40018 6.94309 8.65199
H 2.1952 7.88531 8.45519
H 1.7648 6.80079 9.35162
O 9.42627 7.79008 0.352373
H 9.30713 8.2732 1.15272
H 10.3934 7.46183 0.351497
O 8.21679 11.1576 0.365724
H 7.21107 11.1031 0.298868
H 8.29422 10.8298 1.35519
O 0.0471481 3.54573 3.23221
H 11.7209 3.05944 3.46884
H 0.288322 4.0361 4.02416
O 2.59608 9.98047 10.2676
H 3.56584 10.2068 10.1714
H 2.57447 9.16613 10.7964
O 5.46788 10.6928 0.273344
H 5.45318 9.69702 0.429227
H 5.34992 10.7591 11.7626
O 3.45141 6.18863 6.12695
H 4.13647 6.88319 6.04161
H 3.11099 6.45696 7.00561
O 4.65893 4.04788 9.52297
H 5.25169 4.62942 9.00463
H 4.03802 3.76482 8.77888
O 11.9198 6.78578 0.478438
H 12.4134 7.22984 1.20527
H 11.9466 5.78287 0.583562
192
Atoms. Timestep: 40
O 5.31079 11.1019 10.0081
H 5.99764 10.5812 9.46898
H 5.72163 11.9697 9.84953
O 6.90577 8.36183 3.04024
H 7.3794 9.24505 3.26105
H 7.2775 7.70602 3.66815
O 5.69399 7.67667 0.32977
H 6.36329 7.8018 1.06881
H 6.20032 7.48478 12.0225
O 11.2081 12.1607 12.0502
H 10.7903 0.246936 0.247924
H 12.1595 12.4861 12.0592
O 0.554078 0.511969 9.31869
H 0.453484 12.2937 9.92561
H 1.45326 0.390088 8.9013
O 2.94563 10.4393 5.06473
H 3.75106 9.88818 5.02132
H 2.85061 10.7528 4.11736
O 0.346602 12.2292 5.13413
H 0.992643 12.0828 4.41648
H 0.481136 0.669827 5.43919
O 8.25006 10.5983 6.65988
H 9.22825 10.7267 6.74833
H 8.00108 11.3611 6.06532
O 7.50961 2.1171 7.02845
H 7.18986 1.7696 7.9151
H 8.25642 2.69256 7.3523
O 0.425525 3.25652 10.776
H 1.35476 3.58265 10.7954
H 0.542297 2.37524 10.34
O 10.4245 9.48717 3.18621
H 10.4459 9.81073 4.13168
H 11.1253 8.77787 3.10438
O 2.23055 11.9209 2.71782
H 1.31035 11.7952 2.35317
H 2.42489 0.420869 2.67336
O 7.03349 6.03115 7.54379
H 7.54392 5.51693 8.18526
H 7.7004 6.70356 7.25759
O 0.207994 7.44207 10.1526
H 0.181404 7.17647 11.09
H 12.409 8.36371 10.0277
O 7.84757 10.9922 3.57813
H 8.47233 11.5858 4.04339
H 7.07561 11.5963 3.23684
O 1.35696 9.71301 7.66753
H 1.73183 10.0256 8.50778
H 1.64341 10.1819 6.85868
O 9.44703 1.15354 1.01368
H 8.84543 0.388397 1.14428
H 9.66264 1.54697 1.85601
O 11.4239 4.98856 5.59935
H 10.8562 4.40173 6.16602
H 10.7489 5.18037 4.91693
O 6.17325 1.32939 9.61369
H 6.72109 1.66171 10.3263
H 5.47999 2.02853 9.61409
O 2.48046 2.11144 2.65735
H 3.15687 2.76013 2.85495
H 1.63759 2.55748 2.82621
O 11.0451 10.3304 5.78499
H 11.5709 9.6866 6.28127
H 11.688 11.0764 5.60898
O 4.18559 9.2237 2.79709
H 3.87269 8.39488 2.37149
H 5.14423 9.07843 2.73059
O 10.9827 9.55712 10.8207
H 11.3289 10.2823 11.3546
H 10.5336 9.00163 11.4915
O 5.16428 8.61895 6.10805
H 5.92357 8.94304 5.60159
H 5.39782 8.71739 7.04947
O 6.70181 9.40739 8.59258
H 7.34261 9.84038 7.99348
H 7.2022 8.85723 9.21961
O 3.09623 0.208066 8.49941
H 3.42738 0.0878709 7.57753
H 3.68788 12.2104 9.05205
O 1.77993 11.7932 12.1552
H 1.98209 11.4961 0.549359
H 1.97576 11.0861 11.5234
O 8.20792 4.94452 10.0003
H 7.90674 4.21896 10.552
H 9.15504 5.02352 10.1015
O 1.87677 6.15605 3.76982
H 2.50604 5.65975 3.2127
H 2.39626 6.36584 4.55735
O 5.75536 2.14491 4.49973
H 6.34191 2.45826 5.22778
H 5.20084 2.9487 4.46727
O 4.27479 1.04418 11.823
H 3.53171 0.438671 12.0062
H 4.9379 0.614607 11.2509
O 0.713213 2.63707 6.03865
H 1.3787 3.00017 6.66827
H 0.00873897 3.34115 5.98836
O 5.72505 0.0390324 2.86226
H 4.9718 12.0566 2.51856
H 5.45393 0.714704 3.51064
O 9.00835 4.97785 1.25165
H 9.84239 4.6436 0.879714
H 9.05358 5.87511 0.822662
O 10.528 0.595877 7.98626
H 11.4587 0.454261 8.29594
H 9.95942 0.21548 8.67202
O 7.51237 7.56407 10.6008
H 7.56399 6.64774 10.4188
H 8.28328 7.79217 11.1267
O 12.2269 11.0866 1.96066
H 11.4537 10.6808 2.42704
H 11.9842 11.3221 1.0458
O 8.85449 12.0408 10.0414
H 8.82707 12.4128 10.962
H 9.23118 11.1388 10.1207
O 2.8968 8.04479 12.1942
H 3.81399 7.92318 0.0136793
H 2.66837 7.1455 11.9179
O 9.98882 3.43454 7.49429
H 10.3093 2.45328 7.5991
H 10.387 3.94467 8.2362
O 4.12533 4.36702 3.23893
H 4.86713 4.7157 3.77886
H 4.53629 4.02892 2.41244
O 9.11701 0.600531 5.46656
H 9.67796 0.303125 6.23694
H 8.46258 1.17373 5.95693
O 9.17539 5.46824 3.94075
H 9.14853 6.43859 4.09377
H 9.10527 5.42966 2.97475
O 3.8477 0.411542 5.89005
H 3.57924 12.0184 5.48172
H 4.75589 0.517393 5.55209
O 5.54191 2.72008 0.937133
H 4.95977 2.147 0.364138
H 5.89134 2.13008 1.61815
O 11.0079 5.11277 9.5323
H 11.6332 4.49846 9.94715
H 11.4866 5.97542 9.48747
O 3.25056 3.40694 7.18164
H 3.40215 4.22127 6.72114
H 3.69766 2.65112 6.7826
O 0.468588 8.3317 2.65077
H 1.10515 7.80382 3.16464
H 0.877272 9.14319 2.3152
O 7.61627 2.65549 11.5985
H 8.39004 2.48966 12.1466
H 6.9053 2.82102 12.2198
O 6.24161 5.14625 4.97963
H 6.33081 5.4629 5.95404
H 7.10245 5.03419 4.55725
O 11.8961 4.14203 0.716638
H 12.2236 3.75639 1.54764
H 12.2565 3.65462 12.4894
O 9.06769 7.81246 5.61403
H 9.97569 7.91411 6.00381
H 8.85789 8.76937 5.62706
O 2.80785 5.08622 11.5325
H 3.41123 4.93383 10.8051
H 3.25995 4.69983 12.2934
O 10.0354 2.3026 3.5054
H 9.69841 1.69354 4.22591
H 9.47711 3.09447 3.57893
O 11.9665 7.65606 6.58586
H 12.1329 6.74559 6.33762
H 0.256705 7.8002 7.15522
O 2.43129 6.95835 8.63424
H 2.317 7.88644 8.31894
H 1.60426 6.85188 9.11836
O 9.43621 7.79056 0.334595
H 9.23849 8.35748 1.10024
H 10.3617 7.41289 0.509517
O 8.21091 11.1655 0.415845
H 7.23577 11.0425 0.220134
H 8.39218 10.6699 1.28083
O 0.055901 3.52303 3.22837
H 11.8363 2.95382 3.57803
H 0.242392 4.20463 3.90212
O 2.59906 9.98182 10.2559
H 3.54073 10.2986 10.2191
H 2.6282 9.2773 10.9236
O 5.47455 10.6931 0.254281
H 5.37563 9.74098 0.529993
H 5.36822 10.7121 11.7497
O 3.44619 6.17471 6.15545
H 4.18597 6.75867 5.94278
H 2.97783 6.44138 6.96039
O 4.65115 4.04165 9.5168
H 5.28399 4.71006 9.21744
H 4.10873 3.73692 8.72465
O 11.9173 6.80725 0.446923
H 12.3564 7.26137 1.20909
H 12.0719 5.82746 0.618533
192
Atoms. Timestep: 60
O 5.30564 11.1394 10.0158
H 5.77738 10.4995 9.41711
H 5.51422 12.0652 9.82082
O 6.91392 8.34222 3.05175
H 7.29768 9.28823 3.19649
H 7.60079 7.78155 3.48154
O 5.69129 7.69105 0.341579
H 6.44985 7.76438 0.95433
H 6.14301 7.61321 11.9882
O 11.2746 12.1786 12.0587
H 10.6661 0.166371 0.199649
H 12.1605 0.020778 11.995
O 0.518979 0.533936 9.34054
H 0.305808 12.3718 9.9676
H 1.41064 0.294795 8.97636
O 2.95743 10.4458 5.10908
H 3.76028 9.88361 5.03197
H 2.75085 10.7614 4.18802
O 0.337003 12.2919 5.15821
H 1.15538 11.9579 4.70995
H 0.553271 0.720933 5.40591
O 8.29755 10.5745 6.65869
H 9.27155 10.6839 6.59956
H 7.91211 11.2985 6.1526
O 7.4622 2.15691 7.06682
H 7.12538 1.73046 7.89684
H 8.21124 2.77677 7.24224
O 0.432939 3.24014 10.7589
H 1.17824 3.87271 10.8075
H 0.665021 2.40254 10.3119
O 10.3955 9.43882 3.21361
H 10.482 9.73774 4.17405
H 11.1863 8.82124 3.2179
O 2.2123 11.9179 2.68713
H 1.22589 11.7812 2.59442
H 2.31627 0.428498 2.72008
O 7.04206 6.02969 7.53823
H 7.56868 5.39697 8.06015
H 7.58931 6.80277 7.36056
O 0.154477 7.40026 10.1897
H 0.155299 7.2235 11.1583
H 12.3503 8.3238 10.2475
O 7.84065 11.0002 3.5454
H 8.38827 11.5448 4.17316
H 7.094 11.6458 3.22353
O 1.35999 9.67249 7.65293
H 1.75247 10.067 8.4666
H 1.68496 10.3235 7.00421
O 9.43987 1.15957 0.962445
H 8.76384 0.456165 1.11066
H 9.59515 1.54735 1.82331
O 11.4137 4.98993 5.60595
H 10.8767 4.38032 6.17046
H 10.7969 5.33885 4.94372
O 6.19201 1.34446 9.5933
H 6.83695 1.54038 10.2589
H 5.57688 2.10965 9.55481
O 2.44188 2.08955 2.64665
H 3.1605 2.70905 2.9212
H 1.63885 2.60024 2.87504
O 11.0139 10.3086 5.78363
H 11.5623 9.73337 6.35369
H 11.587 11.096 5.5723
O 4.17725 9.21329 2.77095
H 3.72578 8.38906 2.41619
H 5.1284 9.02955 2.81831
O 10.9387 9.59567 10.8345
H 11.3422 10.25 11.4421
H 10.7596 8.80779 11.3735
O 5.17588 8.63301 6.12199
H 5.94631 8.76862 5.54294
H 5.55727 8.75909 7.01644
O 6.68648 9.35896 8.57239
H 7.34661 9.79412 7.98859
H 7.14133 8.81402 9.2311
O 3.13547 0.217038 8.48077
H 3.48039 0.121914 7.5592
H 3.63569 12.1547 9.06414
O 1.7873 11.8275 12.1534
H 1.98118 11.4444 0.487438
H 2.02857 11.1075 11.5397
O 8.21064 4.96175 10.0006
H 7.94094 4.17892 10.4937
H 9.16742 4.98874 10.1218
O 1.85972 6.17712 3.77101
H 2.43575 5.75351 3.10764
H 2.47212 6.26459 4.52071
O 5.78088 2.18076 4.54985
H 6.31253 2.27649 5.35849
H 5.27242 2.99001 4.29919
O 4.21493 1.05705 11.8241
H 3.41348 0.492537 11.9868
H 4.72605 0.491412 11.2876
O 0.695633 2.59949 6.05917
H 1.46014 2.96165 6.55836
H 0.0971422 3.349 5.88255
O 5.73278 12.5261 2.80976
H 4.93128 12.0913 2.57434
H 5.5067 0.695239 3.46762
O 9.03411 4.97284 1.23777
H 9.90149 4.65419 0.939575
H 8.87025 5.88794 0.960659
O 10.5365 0.619707 7.99026
H 11.4931 0.544868 8.24377
H 10.0401 0.287053 8.76504
O 7.52027 7.57341 10.6338
H 7.62824 6.70009 10.2928
H 8.31793 7.60201 11.2161
O 12.2887 11.1519 1.93329
H 11.5567 10.6009 2.30407
H 12.002 11.2267 0.98363
O 8.8424 12.0391 10.0057
H 8.89115 12.2719 10.9386
H 9.18716 11.1326 10.1211
O 2.9082 8.01686 12.1968
H 3.79292 7.78434 0.02107
H 2.58819 7.18531 11.8084
O 10.0007 3.4126 7.49982
H 10.3875 2.47302 7.69841
H 10.3315 4.00701 8.21597
O 4.17468 4.39253 3.241
H 4.94334 4.85103 3.64473
H 4.55625 4.00536 2.42843
O 9.15248 0.564705 5.42889
H 9.75556 0.44085 6.20665
H 8.39983 1.08359 5.79963
O 9.1499 5.47388 3.94405
H 9.1312 6.4202 4.16914
H 9.16894 5.25122 3.00519
O 3.83149 0.396979 5.91678
H 3.53984 12.0013 5.55307
H 4.62769 0.772301 5.46358
O 5.55324 2.75074 0.980145
H 4.97068 2.17141 0.406357
H 5.93444 2.0376 1.54144
O 11.022 5.09817 9.54541
H 11.6191 4.42247 9.91898
H 11.5402 5.93083 9.65409
O 3.25397 3.4102 7.16672
H 3.47298 4.20381 6.66193
H 3.79009 2.74616 6.72295
O 0.468477 8.26781 2.64077
H 1.09755 7.72996 3.17228
H 0.872653 9.13335 2.47087
O 7.61714 2.64864 11.6168
H 8.41453 2.56603 12.16
H 6.95558 2.82991 12.2846
O 6.24067 5.14629 4.95455
H 6.48038 5.50113 5.90084
H 7.16854 5.04962 4.66823
O 11.8624 4.16377 0.688322
H 12.0506 3.75412 1.55154
H 12.1452 3.56732 12.5012
O 9.06562 7.79378 5.65317
H 10.0092 7.91177 5.88275
H 8.57906 8.6356 5.64845
O 2.82282 5.09105 11.5243
H 3.44883 4.89077 10.822
H 3.13296 4.51185 12.2168
O 10.015 2.31171 3.514
H 9.80742 1.66313 4.24666
H 9.55868 3.15727 3.70406
O 11.9601 7.64604 6.5789
H 11.9534 6.68514 6.44595
H 0.121694 8.00338 7.14667
O 2.45919 6.98542 8.59375
H 2.55053 7.91796 8.3047
H 1.5722 6.99939 8.98229
O 9.45028 7.78596 0.321588
H 9.21327 8.45687 1.0278
H 10.3745 7.43627 0.500399
O 8.21515 11.1712 0.47182
H 7.21731 11.0093 0.389758
H 8.41701 10.6275 1.2572
O 0.073058 3.48826 3.21614
H 11.9299 2.96327 3.72302
H 0.177936 4.33101 3.72363
O 2.60565 9.98623 10.2661
H 3.50255 10.3724 10.1303
H 2.75791 9.19317 10.8096
O 5.48865 10.692 0.233113
H 5.24036 9.76693 0.48075
H 5.36998 10.6931 11.7346
O 3.43415 6.13676 6.16764
H 4.18334 6.75764 6.13019
H 3.01765 6.49094 6.97163
O 4.64513 4.02689 9.52302
H 5.25912 4.73814 9.29829
H 4.16077 3.89824 8.64755
O 11.9277 6.83991 0.424146
H 12.4046 7.33119 1.1341
H 12.0253 5.85219 0.568623
192
Atoms. Timestep: 80
O 5.26523 11.1846 10.0148
H 5.73119 10.5205 9.44112
H 5.72493 11.9678 9.64831
O 6.95058 8.34409 3.06255
H 7.31137 9.30329 3.16781
H 7.71964 7.77357 3.28232
O 5.69631 7.7033 0.341043
H 6.34731 7.73095 1.02878
H 6.16691 7.77943 12.0144
O 11.3551 12.1837 12.0666
H 10.649 0.294689 12.5021
H 12.1132 0.205148 12.1032
O 0.482351 0.561255 9.36115
H 0.235867 12.4275 10.0041
H 1.39104 0.337359 9.04309
O 2.96741 10.4754 5.15114
H 3.63199 9.73737 5.09136
H 2.77755 10.6068 4.18639
O 0.329076 12.3668 5.18556
H 1.2347 11.9387 5.05026
H 0.537929 0.771618 5.48687
O 8.34449 10.5246 6.66548
H 9.27865 10.6463 6.38957
H 7.92512 11.2697 6.27426
O 7.40086 2.19561 7.07609
H 7.12243 1.81653 7.95416
H 8.14404 2.78967 7.37722
O 0.42445 3.23957 10.7406
H 1.14962 3.8964 10.7955
H 0.858479 2.51067 10.2574
O 10.3878 9.37006 3.24307
H 10.3773 9.75363 4.16012
H 11.2016 8.8196 3.1502
O 2.19763 11.9074 2.67316
H 1.21524 11.7307 2.68227
H 2.27374 0.408158 2.7659
O 7.04 6.02502 7.52899
H 7.65504 5.3946 7.98635
H 7.59434 6.79061 7.43666
O 0.0957652 7.35893 10.2461
H 0.11332 7.10199 11.1855
H 12.2347 8.22577 10.1404
O 7.82684 11.0081 3.50442
H 8.41615 11.4582 4.17241
H 7.01983 11.6272 3.28182
O 1.36911 9.65054 7.64408
H 1.6334 9.88752 8.55798
H 1.74217 10.1995 6.95677
O 9.4282 1.17392 0.91336
H 8.75834 0.447513 0.967607
H 9.58002 1.53281 1.78726
O 11.4097 4.9903 5.61559
H 10.8323 4.49434 6.24821
H 10.7295 5.25914 4.96803
O 6.21528 1.35265 9.55565
H 6.88426 1.55367 10.2066
H 5.66664 2.17048 9.63838
O 2.39889 2.08403 2.62808
H 3.15854 2.50969 3.13919
H 1.58452 2.49817 2.99136
O 10.9725 10.3101 5.79054
H 11.5676 9.68674 6.28627
H 11.5575 11.1024 5.60875
O 4.16621 9.20757 2.74016
H 3.60771 8.39597 2.47602
H 4.99937 8.74547 2.97636
O 10.9153 9.62194 10.8397
H 11.0598 10.3535 11.501
H 10.638 8.85902 11.3816
O 5.19995 8.64736 6.1363
H 5.86274 8.46314 5.4476
H 5.67572 8.82766 6.97124
O 6.66658 9.30785 8.54178
H 7.43368 9.76976 8.13036
H 7.03261 8.71967 9.21479
O 3.15521 0.221579 8.47487
H 3.56363 0.366814 7.59396
H 3.71452 12.091 8.9261
O 1.79482 11.865 12.154
H 2.00578 11.5544 0.484183
H 2.06985 11.1996 11.5006
O 8.21378 4.97123 9.999
H 7.95986 4.20993 10.5306
H 9.18646 4.97833 9.95637
O 1.85035 6.2093 3.7656
H 2.39646 5.72272 3.12123
H 2.3124 6.07567 4.60829
O 5.80522 2.18413 4.6053
H 6.24145 2.41546 5.44947
H 5.47237 3.12473 4.40448
O 4.12381 1.07548 11.8294
H 3.26716 0.633089 12.0738
H 4.64922 0.459477 11.4095
O 0.672375 2.54769 6.08971
H 1.56218 2.81063 6.40663
H 0.300064 3.38143 5.78907
O 5.73387 12.4955 2.7508
H 4.92234 12.101 2.54408
H 5.61681 0.688267 3.41126
O 9.05432 4.95748 1.24159
H 9.98521 4.82833 0.945814
H 8.92793 5.83547 0.859881
O 10.5485 0.653398 7.99091
H 11.513 0.631645 8.2294
H 10.0564 0.37313 8.7939
O 7.53522 7.57541 10.6642
H 7.64097 6.74147 10.2611
H 8.22613 7.64877 11.3831
O 12.337 11.1891 1.90157
H 11.6478 10.6901 2.38977
H 12.0528 11.3819 0.959795
O 8.83801 12.0212 9.97994
H 8.92614 12.297 10.8452
H 9.17373 11.1265 9.95219
O 2.9139 7.97926 12.1955
H 3.8283 7.75074 12.4598
H 2.63408 7.13741 11.7711
O 10.0151 3.38832 7.49732
H 10.4173 2.50101 7.82831
H 10.2188 4.05719 8.19407
O 4.24637 4.41177 3.21994
H 4.84223 5.03214 3.69113
H 4.6857 4.16486 2.39081
O 9.1848 0.52367 5.39569
H 9.84368 0.631399 6.11709
H 8.42415 0.993601 5.82862
O 9.12318 5.46003 3.95873
H 9.08129 6.40558 4.18094
H 9.17429 5.44638 2.98681
O 3.81201 0.38811 5.95461
H 3.68336 12.0019 5.48987
H 4.369 0.894202 5.29607
O 5.56109 2.76183 1.03011
H 4.92304 2.29006 0.433681
H 5.95247 2.04805 1.59002
O 11.0457 5.06853 9.57287
H 11.6311 4.38496 9.94893
H 11.4872 5.93335 9.73359
O 3.27963 3.43341 7.13471
H 3.41034 4.25531 6.64073
H 3.72209 2.6902 6.72697
O 0.466747 8.19853 2.62754
H 1.01443 7.55319 3.13327
H 0.895143 9.06786 2.63664
O 7.62841 2.65633 11.6359
H 8.40238 2.36679 12.1614
H 6.9548 2.8601 12.275
O 6.27562 5.15373 4.93493
H 6.31598 5.46508 5.89321
H 7.16097 5.07499 4.55272
O 11.8017 4.18668 0.653044
H 12.026 3.8182 1.53019
H 12.131 3.54453 12.5205
O 9.04378 7.75136 5.68981
H 9.96353 8.04395 5.84555
H 8.64337 8.65978 5.75655
O 2.83194 5.0811 11.5079
H 3.42735 4.84071 10.7897
H 2.98639 4.41425 12.1636
O 10.0032 2.32592 3.51936
H 9.82669 1.64306 4.23003
H 9.6138 3.14564 3.91459
O 11.9291 7.65214 6.56098
H 11.9822 6.66743 6.69128
H 0.0980889 7.91466 7.1297
O 2.48803 7.03012 8.54274
H 2.74489 7.96053 8.40476
H 1.6435 7.11766 9.03059
O 9.45375 7.77183 0.309106
H 9.34544 8.55628 0.960011
H 10.4082 7.48791 0.43546
O 8.21444 11.1663 0.535556
H 7.20518 11.0785 0.550795
H 8.51856 10.8242 1.35789
O 0.0929597 3.46122 3.19812
H 11.9155 3.00557 3.70519
H 0.214892 4.3625 3.59654
O 2.6246 9.98907 10.2771
H 3.49167 10.3701 10.0652
H 2.82585 9.15021 10.711
O 5.50201 10.6828 0.210373
H 5.16258 9.80714 0.451192
H 5.44676 10.7991 11.7304
O 3.43047 6.10477 6.18128
H 4.19971 6.68553 6.17595
H 2.9124 6.27244 6.96859
O 4.64775 4.02104 9.52438
H 5.28733 4.72059 9.37855
H 4.05483 3.9209 8.72732
O 11.9501 6.88919 0.397808
H 12.5173 7.27168 1.10481
H 11.9702 5.8985 0.534308
192
Atoms. Timestep: 100
O 5.2385 11.23 9.96449
H 5.70131 10.4371 9.6571
H 5.80888 12.0196 9.8379
O 6.99712 8.35881 3.06633
H 7.39322 9.29169 3.24797
H 7.7535 7.75437 3.19793
O 5.69293 7.71388 0.330836
H 6.16208 7.82446 1.1389
H 6.35751 7.76903 12.1544
O 11.4353 12.2208 12.0767
H 10.6304 0.259137 12.3888
H 12.2253 0.167128 12.1018
O 0.452217 0.598676 9.37934
H 0.27728 12.4464 10.0372
H 1.36345 0.391387 9.05809
O 2.98003 10.4963 5.17147
H 3.50731 9.69035 5.3851
H 2.83776 10.5744 4.20573
O 0.319856 12.4415 5.21854
H 1.23093 12.0291 5.39606
H 0.389519 0.839158 5.61059
O 8.3929 10.4591 6.67103
H 9.32647 10.6049 6.42741
H 7.93192 11.2345 6.43005
O 7.34368 2.23484 7.09069
H 6.92183 1.84674 7.89614
H 8.1595 2.76275 7.30528
O 0.433005 3.25658 10.7162
H 1.15094 3.89185 10.873
H 0.720932 2.47518 10.2217
O 10.3802 9.29553 3.24269
H 10.4764 9.6571 4.17588
H 11.2024 8.7649 3.20951
O 2.20886 11.8794 2.67925
H 1.23165 11.728 2.51206
H 2.26216 0.381919 2.73248
O 7.03965 6.0199 7.52544
H 7.59489 5.36242 8.03688
H 7.58354 6.76151 7.31443
O 0.0440519 7.2984 10.2784
H 12.4952 7.25517 11.2646
H 12.1425 8.14237 10.2092
O 7.81232 10.9979 3.45331
H 8.4309 11.4703 4.07754
H 6.97431 11.6029 3.33567
O 1.35637 9.60971 7.63495
H 1.65706 9.94259 8.5181
H 1.97611 10.0976 7.08861
O 9.40942 1.19592 0.847006
H 8.86909 0.370012 0.929404
H 9.54004 1.53285 1.74226
O 11.3997 4.98624 5.62955
H 10.9788 4.41989 6.32544
H 10.7101 5.14554 4.95795
O 6.25564 1.37636 9.51351
H 6.87533 1.54694 10.2233
H 5.53558 2.02691 9.65968
O 2.36502 2.08443 2.61866
H 3.1029 2.3627 3.26374
H 1.53096 2.42655 3.02507
O 10.9388 10.3335 5.80015
H 11.4962 9.58375 6.16098
H 11.5448 11.1292 5.69728
O 4.1555 9.17236 2.71313
H 3.38464 8.603 2.46589
H 4.88298 8.64528 3.09568
O 10.8884 9.64284 10.8505
H 10.8607 10.5177 11.3484
H 10.2608 9.07564 11.3553
O 5.22043 8.64757 6.13758
H 5.79592 8.20828 5.48371
H 5.82577 8.878 6.87178
O 6.65106 9.25562 8.51536
H 7.46591 9.7284 8.2284
H 6.90955 8.64939 9.21193
O 3.16111 0.225868 8.48763
H 3.47202 0.526648 7.60308
H 3.85214 12.1387 8.79685
O 1.80278 11.9245 12.158
H 2.04528 11.6529 0.484727
H 2.09341 11.1822 11.5928
O 8.21822 4.97456 9.98485
H 8.07415 4.2871 10.6517
H 9.19973 4.9681 9.90206
O 1.84325 6.2187 3.75551
H 2.47499 5.64568 3.2755
H 2.14994 6.13758 4.67709
O 5.81893 2.20523 4.68399
H 6.33697 2.25425 5.50696
H 5.61565 3.11421 4.29285
O 4.01728 1.12447 11.8469
H 3.17224 0.622962 12.0682
H 4.52141 0.386639 11.5695
O 0.656402 2.49571 6.12655
H 1.57983 2.59748 6.38078
H 0.388159 3.30925 5.73669
O 5.74034 12.4868 2.69322
H 4.90558 12.1016 2.49871
H 5.58663 0.658316 3.37365
O 9.09111 4.96983 1.2446
H 9.97469 4.61343 0.985091
H 8.85935 5.73611 0.748459
O 10.5699 0.710731 7.98537
H 11.5032 0.613621 8.32408
H 9.99589 0.330852 8.70285
O 7.53912 7.5877 10.6881
H 7.71358 6.66905 10.526
H 8.26137 7.75015 11.3929
O 12.3756 11.2018 1.88733
H 11.5603 10.8939 2.35213
H 11.9619 11.5721 1.03743
O 8.83515 12.0062 9.9399
H 8.94632 12.1644 10.8222
H 9.2135 11.1337 9.91533
O 2.92522 7.92576 12.18
H 3.8644 7.86875 12.4332
H 2.70331 7.01176 11.8577
O 10.0152 3.37708 7.49897
H 10.3838 2.46246 7.79863
H 10.2405 4.00082 8.23943
O 4.31048 4.43813 3.18681
H 4.81762 5.03683 3.77985
H 4.86923 4.33998 2.40008
O 9.2164 0.496243 5.38535
H 9.90564 0.495594 6.06283
H 8.46755 0.989578 5.80652
O 9.09637 5.45836 3.96386
H 9.05083 6.31244 4.42973
H 9.09133 5.4693 2.99234
O 3.80725 0.396306 5.95872
H 3.6773 11.9599 5.61434
H 4.21239 1.017 5.3095
O 5.56734 2.77385 1.07568
H 4.91022 2.26731 0.527053
H 5.8603 2.02811 1.66752
O 11.0586 5.02991 9.60544
H 11.7055 4.40321 10.0009
H 11.4935 5.9051 9.74379
O 3.29559 3.46383 7.10196
H 3.52129 4.22225 6.52137
H 3.78901 2.73657 6.69792
O 0.459167 8.12485 2.61577
H 0.9351 7.46065 3.17195
H 0.980417 8.94518 2.66649
O 7.6508 2.66565 11.6448
H 8.28527 2.18023 12.2208
H 6.97807 2.87986 12.2798
O 6.29843 5.16073 4.90381
H 6.48312 5.3947 5.87338
H 7.22414 5.23094 4.59874
O 11.7299 4.20817 0.623893
H 12.0967 3.88624 1.47482
H 12.1217 3.65797 12.4298
O 9.01925 7.7285 5.73229
H 9.96301 7.78429 5.88775
H 8.5613 8.59718 5.79508
O 2.82178 5.05523 11.4785
H 3.45809 4.76968 10.8075
H 2.95114 4.40586 12.1658
O 10.0011 2.34819 3.53542
H 9.75245 1.56106 4.09389
H 9.57411 3.13589 3.94892
O 11.912 7.65923 6.56315
H 11.8003 6.65685 6.59606
H 0.0875578 8.00059 7.03454
O 2.51412 7.07835 8.506
H 2.81581 7.99254 8.41872
H 1.77965 7.15298 9.16114
O 9.46073 7.76554 0.30173
H 9.3893 8.58306 0.90625
H 10.3999 7.44734 0.326918
O 8.22601 11.1667 0.60849
H 7.22141 11.0162 0.670453
H 8.42802 11.1282 1.52408
O 0.111411 3.44695 3.17247
H 11.7863 3.09736 3.51201
H 0.273356 4.30629 3.63987
O 2.64926 9.98473 10.2704
H 3.51135 10.3465 10.0998
H 2.74888 9.2457 10.8995
O 5.52019 10.6904 0.200148
H 5.17975 9.80869 0.379744
H 5.46475 10.7593 11.7278
O 3.41735 6.04486 6.18436
H 4.10052 6.73128 6.25962
H 2.93952 6.3181 6.9828
O 4.6492 4.0154 9.54698
H 5.2793 4.68078 9.23154
H 4.12001 3.87537 8.70733
O 11.9883 6.93408 0.370397