# total energy = -458.7076590300000021

ATOMS
O 24.6854049191 20.4842250720 16.6570920516  0.032751773276515 0.040494751753447 0.033705698656089 
H 23.1056161051 20.1294969211 15.9238062965  -0.014426751779699 -0.023040505703006 -0.019200753744533 
H 26.1694242755 19.4729794220 16.2721547302  -0.01816916603992 -0.013373251541844 -0.0065910985635774 
O 19.9721639483 17.9727216444 14.2616008336  0.02885892770377 0.0042391886594793 -0.0015306263519857 
H 19.1561950928 19.5869847419 14.4639074113  -0.0075372608788628 0.016725625904789 -0.0007456536548417 
H 18.6839448407 16.7394198834 14.1452428040  -0.018091040033666 -0.01717390198012 0.0002869958543171 
O 23.6027786239 23.3073123011 12.3443295142  0.0091301109454714 0.022562240545485 0.0026397859691634 
H 24.8839925147 23.7534427513 13.6208512138  -0.0054145935369463 -0.0040067834599967 -0.0044431581454685 
H 24.0053111902 21.5725224370 12.0008905904  -0.0007032419858021 -0.012414875967112 -0.0029994441213316 
O 25.9193737537 15.9574245339 15.0130714283  0.022413995042849 0.0002578601042013 0.0093946642681978 
H 24.4687137421 16.3342435895 14.0168982382  -0.020373032170025 -0.0020888438865866 -0.010055072875414 
H 26.2481880828 14.1673412676 14.9433008302  -0.0016362503709918 -0.0062698251103596 -0.0030264067888165 
O 19.1236313229 23.3402861417 15.0214750428  0.0033084033710376 -0.014913522530135 0.013765000608893 
H 18.0081389016 24.6354537742 14.5200625288  -0.030620065173305 0.016919575761196 -0.0070467611542258 
H 20.7054515931 24.1704676314 14.6518274999  0.019899390387786 -0.0090456153843016 -0.004980638150297 
O 20.0448919687 20.3799556239 20.3684339605  -0.011917709245828 0.0034814384420707 0.0071331920669078 
H 21.2957644082 19.4904707320 19.3740144367  0.0023926133151581 0.001557979742863 -0.0052823733444082 
H 18.9020873278 21.2565015573 19.2050124017  0.010117945293983 -0.0039301980012176 -0.0010285466007739 
