# total energy = -458.7260180878000142

ATOMS
O 24.3161409907 22.7269299996 16.4721596208  -0.026331415374996 0.033391596961928 -0.020547751491956 
H 23.6084874881 23.8791511484 15.1304385719  0.018380057724984 -0.0096064003373202 0.0041630586261061 
H 22.7363918610 22.7855417618 17.4217227028  0.0009062809129999 -0.010209306596261 0.013263872556976 
O 18.5526844266 18.9563394906 14.5461936691  -0.022069557220505 0.012882248254709 -0.014732449527586 
H 19.3960448701 18.4291038618 12.9898998267  0.0029585206019601 -0.0035541923328031 0.0071583668425101 
H 19.3000902193 18.0841701641 15.9851695007  0.0088541042218683 0.0007152233234881 0.0044473592438212 
O 21.3510559207 16.7664524233 18.1716720676  -0.024870788469555 -0.0023372702491946 0.0035602690737354 
H 21.3886520326 15.2969990800 17.1147082604  0.0027249830776603 -0.015181376363496 -0.0044850684398113 
H 23.0888825755 17.1834073835 18.5149295776  0.024086123705331 0.0097913318285808 0.0045108513853754 
O 26.0419092997 18.8296314281 18.6085636441  0.0044909478301495 -0.037938231465632 -0.0031785060341746 
H 26.2956202221 19.9020720966 20.0087074825  0.0059025635580482 0.014567826769337 0.027267533167738 
H 25.8337351207 20.0260381658 17.2612244378  -0.0014292270572823 0.012136785022461 -0.016259533570441 
O 20.1266150880 24.3124749210 13.6239333580  0.0042720421574399 0.0019186254437592 -0.0035197912579174 
H 18.7239465747 25.3863612304 13.1188812304  0.0007805987691876 -0.0017248293792001 0.0006779596832548 
H 19.5415708308 22.5535891522 13.5075375338  -0.0076003809036656 -0.0022892118282524 0.0074191320441019 
O 22.9470245743 19.6487088839 12.0421282056  0.0042947622922657 -0.025119096481192 -0.027322434035756 
H 22.8098153008 21.3532158783 11.4396304330  0.001484412460626 0.01197641237844 0.0037032918908153 
H 23.1129954877 19.6264063299 13.8412197989  0.0031628349466186 0.010587261152607 0.013857181576388 
