# total energy = -458.7108827807999774

ATOMS
O 23.2192888331 19.5559648787 12.8105156335  0.016844593184921 -0.016952903079164 -0.0009357173723054 
H 21.4103593228 19.6796796142 12.5043742448  0.0017199209201133 0.010166808771247 -0.0034826747168548 
H 24.0522085368 20.9933741270 12.0269215752  -0.0095862017376825 0.0014955224419819 -0.0046425940796699 
O 19.0505593723 22.4402641339 13.4566415256  -0.014586820311321 0.0014316422704233 -0.020365210171026 
H 20.2609009544 22.9061630147 14.7136669152  0.014246576281833 0.011562820768173 0.019100824134215 
H 18.5411589837 20.7888187746 14.0247613908  -0.013395285249094 -0.011899671702065 0.0061772941717035 
O 18.5906074613 17.3471899935 16.5295506196  -0.028557757041655 -0.0050562637458934 -0.047934757379535 
H 19.3945066326 15.6991083476 16.3688803895  0.0093830506489782 0.011519790801265 0.02032012869855 
H 18.9306921203 18.4848829237 17.8576013858  0.016415985897692 -0.0011740453553441 0.028017995569939 
O 23.8612762239 15.7050572071 16.8076616927  -0.0022669210957396 0.0035618088691974 0.014850100614397 
H 24.1672173015 15.2170031709 15.0658741707  -0.0013792196703035 0.010604746287955 -0.0032619881435625 
H 23.1845197522 17.4462192295 16.8431507594  0.0065552207502657 -0.015270501988737 -0.012505888223238 
O 26.6413551638 21.7695472287 16.0439532281  -0.0054497194675301 -0.017265129086171 0.0063659197726755 
H 25.8423881791 20.3140514065 15.1839915358  -0.0001336621407948 0.010866644974742 -0.0073218906826997 
H 26.6862701871 20.9735471148 17.7087419474  0.0073870841483072 0.010057443277198 0.0067163355409683 
O 21.8925136324 24.4999490341 17.7820293268  -0.0025711921862108 -0.0063494705534595 -0.0008548490812855 
H 23.5287844866 24.6327401267 16.9552965883  0.0075397398941772 -0.0029870857042562 -0.0005647175889232 
H 21.1044276938 26.1413240400 17.6252481542  -0.0021652361670212 0.0056642963872308 0.0003108095085646 
