# total energy = -458.7281640100999880

ATOMS
O 20.9180685194 19.0725331140 13.0945321024  0.038727330909702 -0.020679559337892 -0.037157305124714 
H 19.3320795123 19.0835332129 13.8478829751  -0.033547473679435 0.0052814850152945 0.025826309219602 
H 22.0985429716 20.2554245265 13.8653856235  -0.0030786670139709 0.0070634156245973 0.0060958229692752 
O 24.5579900988 22.6235827381 14.4573954132  -0.0027973003945385 -0.013038796212585 0.033078665080393 
H 24.9130584005 23.1478061426 12.7948781453  0.0035420790220094 0.014660515886339 -0.027344715441173 
H 23.1465494744 23.6022438312 15.1409794673  -0.0033324515707486 0.0072276989267011 -0.010030881048495 
O 24.5644643024 15.2331697825 15.1234295757  0.023251784748917 0.015977138744414 -0.0008752198553524 
H 23.6404786708 13.8449898036 15.7620664811  -0.0138834372366 -0.022413089886123 0.010388490256166 
H 23.3788271170 16.1913122235 14.1259694817  -0.013737624155571 0.007860749213597 -0.012730802392714 
O 24.6091676763 19.4055842103 18.5341594362  -0.0074387924714865 -0.033711518169746 0.0063058484353465 
H 25.1428208169 20.8531469599 17.6018249922  0.0093697440423129 0.010401560761797 -0.013250074769559 
H 24.7189532366 17.9276157587 17.3276483300  0.0062263740501471 0.01454741853455 0.012897428229253 
O 19.4907447424 20.4414662268 18.1684557528  -0.047142680894244 0.0046776135947659 -0.019387883723638 
H 20.0902813134 21.6426558627 19.3385140316  0.0098492299309058 0.018972777032787 0.020794948535567 
H 20.8279928083 19.2714778679 18.0411467572  0.031245009586247 -0.019003913269863 0.001591428618176 
O 19.2651321658 24.5433995192 14.1653646135  0.01190828481435 0.020928277668161 0.0036377990414304 
H 18.4152446064 23.1180429477 14.8458703028  -0.0097172133201148 -0.02045872763485 0.020316089099495 
H 19.0180787504 24.3106324375 12.3928992689  0.0005851693140833 0.0017203283318129 -0.020132939270533 
