# total energy = -458.7215273075000255

ATOMS
O 19.3096768027 18.0725521246 14.9149605994  0.015349754677696 -0.017327789284882 0.000148041326941 
H 17.7468237191 18.9930171954 14.8829637475  -0.0065240369603371 0.011180983645587 0.0072008580707344 
H 20.1335560540 18.3265521752 16.5578341586  -0.01012903495113 0.0024757747024139 -0.0046820196167593 
O 22.9132664972 22.2695859114 15.0587782471  -0.0058229142273523 0.024183595691645 -0.013136432984497 
H 22.8097888446 21.5237278048 16.7124270277  0.0055268464769531 0.0005009171800703 0.019732366986646 
H 22.6324342178 20.8364776810 13.9699763251  -0.0074856695116771 -0.0033884628169004 -0.013249815732826 
O 23.3449991200 20.2622653370 19.6884309384  -0.013055527111154 -0.011920621490735 -0.016213150274405 
H 23.5664561877 20.8283518564 21.3615684701  0.0010283874817875 0.011715903309461 0.028067969692995 
H 24.8095410636 19.2546611903 19.2811646068  0.0099939886607559 -0.004320787529578 -0.0089595469560482 
O 26.3551692887 18.6524355383 15.6108505535  -0.0033869856505068 0.020563836439868 0.0027497340159933 
H 27.2837620739 17.2742559929 14.9588532806  0.014075482011068 -0.023741480336293 -0.0089717445642323 
H 25.9830424244 19.6791580497 14.0868823754  0.001416188859679 -0.0065346257336552 0.016296718433014 
O 17.7956145718 23.9129337920 16.9092345008  -0.0033011508724793 -0.025542448887958 0.019681128574394 
H 19.4906842712 23.7793093298 16.2610884909  0.01798547862701 -0.0037098802213529 -0.0084449351298721 
H 17.1006827091 25.3315497085 16.0960870072  -0.013399328858126 0.025972658568493 -0.014403422816035 
O 23.5375282519 18.2584445365 11.3281327804  0.019063557935163 0.0063265108446963 0.0028791974829535 
H 22.2158761001 17.1565997211 11.8789710952  -0.016694385167157 -0.0086328409097872 0.007419074778491 
H 23.3203306281 18.5432773673 9.5603331709  -0.0046066141194819 0.0021906975585359 -0.016129646900807 
