# total energy = -458.7199921179000057

ATOMS
O 22.7441888732 23.1241618826 15.5473670760  -0.0099640848980704 -0.029818386910215 -0.029193560744427 
H 22.8974608234 23.1064249081 13.6642601250  -0.0010512390446226 -0.0063568689721976 0.0081486209862921 
H 23.3196711135 24.7316295230 15.9813031200  0.012072881891924 0.038578932284365 0.016170937760945 
O 23.3912747465 21.4885108587 10.4500202635  0.035326218653571 0.0008944127778449 0.021989692909367 
H 22.0156425526 22.1180543994 9.5007765454  -0.024542083889817 -0.0033150364353425 -0.013070132520128 
H 23.0730825709 19.7969900660 11.1328484270  -0.015636459682888 0.0027150384899524 -0.0086016140758841 
O 22.2019752708 20.7131465601 21.1255359407  -0.01380043355167 -0.0042907994804055 0.014020529336254 
H 23.7605840283 20.8514877799 20.1715603469  0.004796772755919 0.0080992565753745 -0.0055365257797791 
H 21.4525266836 22.3691801757 21.4651916317  0.011005648787871 -0.0041885225335409 -0.0065919021298536 
O 26.0373607276 19.2660127784 17.1691682931  0.044400267917145 0.0075795777669483 0.025904620184344 
H 26.4507025305 20.4871106847 15.8678023571  -0.016188503220962 -0.0036134933679109 -0.0040181717708362 
H 24.5434184165 18.3430381506 16.9143972341  -0.027767213263158 -0.0079730729943861 -0.017704578497329 
O 18.9014259235 19.4780873532 17.0052496229  -0.014891089700971 -0.0093118986790784 -0.024715203999863 
H 19.0015455318 19.2550183487 18.7894652879  0.0068604250844215 -0.0005760470320992 0.018639340335892 
H 20.4886999448 20.2325002524 16.5054358176  0.0045707333860939 0.010927476179115 0.0037526031383248 
O 20.0186927982 17.1532700227 12.1733980683  0.0069792005423207 0.0091148783929661 -0.021451843373755 
H 18.6614911085 17.7406140773 13.2473731949  -0.0018654692513875 0.0006097064513537 0.012702461558677 
H 20.8144831524 15.7493410618 12.9970467730  -0.0003102266881668 -0.0090628055842865 0.0095425816884226 
