# total energy = -458.7168168024999773

ATOMS
O 21.0152118083 20.1353267279 17.6977342895  0.0066470657899991 -0.019303667628427 -0.0094903756056904 
H 20.4945864433 21.6422514612 16.8317783843  -0.0086213181358081 0.013672159072487 -0.0028429406412407 
H 19.9770847965 19.8390591610 19.1562177695  -0.011015931315498 0.0053109381537115 0.008448224917446 
O 18.8320483885 19.0385180340 11.7836948563  -0.0027886376013309 0.023272835126875 -0.015343034839905 
H 20.6595274557 19.1154922702 12.0518980925  0.0072627926996554 -0.016871962848966 -0.0007490307405777 
H 18.1782936698 17.9498294956 13.0614618857  -0.0050349109576369 -0.010053066983372 0.012906851930182 
O 25.5494710976 21.1207190274 15.4779555259  0.0078639161822979 0.0076611332772869 -0.0078901807760775 
H 24.6324680061 22.0427865864 14.1520269227  0.0033658463033752 0.001981994387978 0.0025113128325635 
H 24.1327619153 20.6190854154 16.5321206479  0.0005076909113153 -0.0012663323604725 0.0090466833914614 
O 21.2143323068 23.7005511917 12.7839687533  0.0067163603126921 0.0054668800634525 0.036161378954209 
H 19.9909723978 22.4285516080 12.3130961119  -0.0089158031374027 -0.0050678942891361 -0.017035962527148 
H 22.1174440177 24.4608014565 11.4243557723  -0.0010526568188868 0.0017533384122066 -0.019115549962957 
O 23.2402893655 20.1438947486 22.4936564710  -0.0090419729995487 -0.0083883185927161 0.0072598035697262 
H 23.2012948558 19.6741994069 20.7161814611  0.0094487660409748 0.0057032237402168 0.0017819684465224 
H 24.5837414041 21.3537298839 22.7322269034  0.0047174971841209 0.0032203694069007 -0.0042193701985898 
O 23.5187046846 17.1321636656 13.1649395384  -0.016860951176946 -0.016922347337374 -0.015658281904424 
H 22.3827767591 16.7811601659 14.5746548424  0.010823712082253 0.0019294509104614 0.0025853297179545 
H 24.9356179574 18.1127938539 13.7833412507  0.005984920713622 0.0079000767906942 0.011658880143862 
