# total energy = -458.7218932544000154

ATOMS
O 20.3796475985 21.5896509195 14.0232477198  -0.0069952047061876 -0.0005916655039402 0.0028574790372631 
H 21.4075795349 22.4813959245 15.2684698766  0.0063213616944513 0.010765099680709 0.0064209401266636 
H 20.6485991664 22.5912948683 12.5181333446  0.0009410804898095 0.0005225161104036 -0.0082195414939511 
O 24.3188999916 19.7693641520 20.1779702998  0.0070667800467259 0.012843048563074 0.017532145047909 
H 22.7273400703 19.2589905541 19.4389511140  -0.015022622184122 -0.0014299468585413 0.0017202022496897 
H 25.4500790340 18.4656625138 19.6063128662  0.0078915078092125 -0.0045396822619822 -0.0066292913480053 
O 24.4094008913 18.3167426041 15.2962167332  -0.0022314146277648 -0.018186272806421 0.001978189208818 
H 25.7654781936 18.5901010146 14.1110841048  0.0023532237490551 0.0041964143668863 -0.0046730280662634 
H 23.1375373679 19.5984931773 14.9279675880  0.0052987212345051 -0.0032588433600722 -0.0094352443893529 
O 19.0973981374 19.1013627839 18.7871409241  0.0031701063142171 0.0036009571857548 0.011980819080537 
H 19.4117957419 19.2930604361 17.0167448302  -0.0025938650158428 0.0061770600925304 -0.020859384296664 
H 18.6117931870 17.3551249557 18.9114584823  -0.0038364117074321 -0.011743470448907 0.0054135400506944 
O 24.8605542349 23.4286233043 16.4221631225  -0.0034753384351816 0.011154903770071 -0.012101574449158 
H 25.6268554045 25.0984103506 16.5043359967  -0.0020608390147605 -0.0024163469383309 0.0049480374746138 
H 24.9364437680 22.6096138786 18.0804492923  0.0031575391886188 -0.0063402881962716 0.0080688329316589 
O 20.2474952334 19.0699895419 8.8710988341  0.016292989290802 -0.0005361118080068 -0.0072274667445274 
H 18.9451239629 19.3556122784 7.6322998582  -0.0082014301159698 0.0012962828362839 -0.0019666343130987 
H 19.5173766603 19.2496099510 10.5212610690  -0.0080777464346015 -0.0015157886150942 0.010184481338303 
