# total energy = -458.7207748353999932

ATOMS
O 23.6077882892 22.7838920304 16.9793414703  -0.0087849884379333 0.0086266937755249 -0.0053893623041825 
H 24.1708134514 21.1909790647 17.6609583189  0.002736621500849 -0.013200292159341 0.015868411619047 
H 24.5829174832 22.8778435709 15.4336792302  0.0026340137849887 0.0059073613582084 -0.011853405990684 
O 21.6781354808 17.1897020630 13.5944177172  -0.0005171465463872 -0.027349792640492 -0.0023412857468243 
H 21.1345839519 17.9806055841 12.0497589219  0.0007741975898234 0.013958870862648 -0.00059208537901 
H 22.4575116692 18.3526209545 14.7519074240  0.0032340758909573 0.013954153218896 -0.002804812520802 
O 26.5963910076 21.6012160467 12.2764146276  0.0011518208025752 0.026318945524392 0.015765835089714 
H 25.9855425328 20.6013352128 10.9315736400  -0.011159606923997 -0.016730618256441 -0.021772549239245 
H 27.5714332741 20.4786144736 13.3045468751  0.010230779119328 -0.010844549145894 0.0078463492556198 
O 18.7966197930 23.0926847056 13.9687064288  -0.018693603194942 -0.0086586713616453 -0.011155513234798 
H 19.4212046909 24.1549170707 12.6232758465  0.0048475379129452 0.0045135826236123 -0.0004695851365829 
H 20.0392549140 23.1015815387 15.2899636277  0.01780180536244 0.0074700159474662 0.0083722908441605 
O 18.4534926741 18.7195132760 17.6020801053  -0.010394867815434 -0.022099713833459 0.0274427786605 
H 18.2538865158 18.0440323698 15.9333758723  0.0009585902876609 -0.0042426929203584 -0.014138123005666 
H 19.3763066751 20.2309468971 17.3893441261  0.0096565488328712 0.025324958199592 -0.004056382878077 
O 23.9391934337 18.0628351501 19.1828005545  0.024884820138506 0.0089304496572082 -0.0001389677571286 
H 22.2234860294 17.5874536209 18.9542948064  -0.03273168152888 -0.0081037106568578 -0.0018489455579831 
H 24.8068519826 16.5827634327 19.8032412818  0.0033542826739148 -0.0037821992577813 0.0012592604076555 
