# total energy = -458.7158338012000058

ATOMS
O 24.1536226079 20.9682388726 18.0304943680  -0.0016335166105737 -0.023761065693032 -0.0026792884910923 
H 23.2074629237 22.5203356321 18.3179784853  -0.0071188927004885 -0.0063933738586201 0.0018703222386035 
H 22.8586458377 19.5718196855 17.8620762586  0.014012123573205 0.03214257305117 0.0086777816436648 
O 22.5733878184 24.2213579704 13.3110569835  0.0031742587575823 0.0043316631894696 -0.0037387758267857 
H 23.0272831555 23.7421270680 11.5921408233  -0.0025488048797953 0.0034978435398157 -0.000495763923848 
H 23.2919204774 22.8203958804 14.2567064415  -0.0029446954673647 0.0006425697593806 0.0045182390861463 
O 21.5965106273 18.9934310456 13.6380836312  -0.030542867732019 -0.0011988652309678 0.0087472193874286 
H 23.3593119097 18.7223440865 13.3810619077  0.032712029966446 -0.0079941947992321 -0.013825286853633 
H 20.5973648971 18.3255638481 12.2730943779  0.0029316479943885 -0.0022703084806023 -0.01106334954637 
O 26.6718553522 19.3462902568 13.8654026310  -0.0361529846292 0.030491320299833 -0.020281064693456 
H 27.9319780037 18.1953295557 14.2248135246  0.038605882090306 -0.034884281522204 0.010809191441548 
H 26.2030217258 20.1685141075 15.4575540368  0.0004817089453823 0.00408752513178 0.010164739965423 
O 19.3538208176 16.3726541736 17.3783496964  0.0055023623277441 -0.0046167907660519 0.015813154503517 
H 17.9739083928 15.9287649393 16.3093218742  -0.02002518282725 -0.0089506338097334 -0.0065498607408805 
H 20.6429129789 16.7465970653 16.1314815877  0.0096423656462246 0.0029867476900435 -0.0069402964966648 
O 18.9231861260 21.6351158533 17.4748504782  -0.0050291854831189 0.036985294056858 0.0084960844889331 
H 19.0161795751 23.0006096636 16.2033025392  -0.0001884693500953 -0.014631877290423 0.0033554089995266 
H 18.7269928141 20.0563437123 16.6167218209  -0.0008756315847176 -0.010470204063199 -0.0068840947870603 
