# total energy = -458.7192046609000045

ATOMS
O 20.1390664969 18.2264080004 15.2280089390  -0.015336145529168 -0.0088979490490311 -0.011355399702913 
H 19.1426967753 16.8941866074 16.0348825401  0.0036431099493443 0.0018316354766918 -0.004487343454361 
H 20.6833625781 19.2619215202 16.6388013872  0.0091496831195258 0.0052759032648878 0.013631830177513 
O 23.0143177408 23.3123937761 13.8386497706  0.010304531077589 0.013723588669597 0.01069637017747 
H 22.6287549200 21.8203317430 12.9283249731  0.0031291424966097 -0.023421106026937 -0.020927227227385 
H 21.4662177533 23.5507638974 14.7528655154  -0.013535770997313 0.011671268516437 0.012428820935834 
O 22.3255992994 20.5006449070 19.4327887154  -0.010328486713322 -0.0008047972537047 0.0099835247882902 
H 23.0821286924 21.9962029344 18.6591327296  0.01017080532263 -0.0098578115914554 -0.0024398720091215 
H 23.4457158819 19.0459919030 19.3374690127  0.014080318120174 0.0067529631376587 -0.0030319375016426 
O 25.6741495937 17.8969738409 16.4012986504  0.0003876319670297 -0.001103663350105 -0.002275426289091 
H 27.1835234127 17.6754449635 15.3913569118  0.0061062038508521 -0.0012834760547475 0.0021204701283491 
H 24.4832835346 18.5405882863 15.1516866585  -0.0033199172816442 -0.0017740174088083 -0.0025531634295025 
O 18.5225621836 23.2198349641 18.0543635055  -0.01512167135447 0.011306427313437 -0.019705312753207 
H 19.2989242580 22.5594888788 19.5625845913  0.0016551958674938 -0.0085155534750774 0.0053697004055583 
H 18.1711278263 21.7611114888 16.9577589021  -0.0005234477832397 0.005579005480836 0.0093910009709309 
O 23.6428824031 18.4595738145 10.5643298294  0.004399670326948 0.023529273850702 0.01820467012964 
H 21.8635554610 18.0886091321 10.4867263143  -0.004394363195282 -0.011289197629543 -0.0038020029160396 
H 24.6544757628 17.3542859171 9.5628294998  -0.0004770871038721 -0.012714293366294 -0.01122690922487 
