# total energy = -458.7086813299000028

ATOMS
O 20.8583361493 18.3152950734 14.3134813894  0.015490052158316 -0.036860326454198 -0.0017194578356193 
H 21.9188224070 19.6519648830 13.7370996392  -0.0014207966283351 0.020398106404626 -0.010153302597307 
H 19.2010364168 18.8316213103 14.6962058408  -0.025971658444338 0.020695988854622 -0.0091907678780546 
O 19.7295646187 20.6984539352 19.3694072831  -0.010500493769473 0.0077252669937408 0.016965059927348 
H 20.9609539763 21.9596669591 18.9162489394  0.007055647364054 0.012016752956824 0.0039967393391237 
H 19.9440448155 19.6805677858 17.9033025354  0.0010307265544456 -0.019275678577494 -0.016074750656663 
O 23.2326605390 15.7869050484 17.6030514248  0.029925895370232 -0.010108007539419 0.032893607639361 
H 21.5330063627 15.9526605329 18.2384625668  -0.0044795410706027 0.0013859914387735 -0.0038054120645079 
H 23.1613762698 15.6130634234 15.8124957269  -0.012152544041775 -0.0001768392359536 -0.016241592775301 
O 24.8373257148 21.0157069167 17.6771986299  0.0082011390283879 -0.0064912359917288 -0.0039610840096634 
H 24.9184592393 19.1519016338 17.5751571695  -0.0097807051982718 -0.0028523283012797 -0.0053692620086928 
H 25.1387484560 21.2135499600 19.4608076926  0.0033643525510802 0.009817474999201 0.010144130962856 
O 19.5204021127 22.9850496543 11.9551327490  0.0028116373699054 -0.010818123673522 0.034309547131095 
H 19.0452492404 23.6894660551 10.3954903109  -0.0035420869366017 0.014159331246783 -0.027853293777271 
H 21.2427594650 23.5072472718 12.3794425253  -0.0033378647542887 -0.0020390919296534 -0.0074811938967609 
O 25.0568571510 22.3631557271 12.5922276374  -0.0053905820457863 0.0098118474660591 -0.0046974676738604 
H 25.0889390406 24.1459862225 12.0510401566  0.0050845439818333 -0.011620055809021 0.0067678286927991 
H 25.2746991716 22.3142363730 14.4405579486  0.0036038041705384 0.0042192329832372 0.0014683954426107 
