# total energy = -458.7176006537000035

ATOMS
O 25.0021174387 21.9354293249 18.0047997545  0.014097945700903 -0.013745613336072 0.033033167702028 
H 24.7126755646 22.4660721309 16.3228579863  -0.010631187075283 0.0094206339846761 -0.032010004663924 
H 23.7055306215 22.8613065729 18.9107422759  -0.0016948533813872 -0.0023712556530643 0.0020414666942281 
O 21.6044852738 23.2047209303 14.2967535290  0.001876507719684 0.016405903177179 0.0088662527492804 
H 21.4333157223 21.4214123341 13.7688829520  0.0009139573037436 -1.9109372729e-6 -0.0069169975273779 
H 22.1587326556 24.0619236216 12.7768047995  -0.0009840483008136 -0.0001372135936532 -0.0044115547212222 
O 21.7683491420 19.0709362949 11.6684139709  0.033085128830482 0.018940157936291 -0.036860123024691 
H 20.6093098594 17.9723531477 12.4642440094  -0.010396290804331 -0.024280186412289 0.019226375155385 
H 23.5176218712 18.4146625706 11.8363653179  -0.019555722396389 -0.0018017303434566 0.0052593610281946 
O 26.1069366839 17.0145981007 14.8827502084  0.0003063565321293 -0.014767253745282 -0.023038735197569 
H 27.5193372895 15.8710054438 15.1082437323  0.0019877484474896 -0.0033660211423232 -0.0019518318599662 
H 25.9918183150 17.8921077947 16.4362718218  0.000294261382307 0.023952666341302 0.026437367877776 
O 20.7214084450 17.5153303131 16.2452752582  -0.029182522697444 -0.022327965133366 -0.016955376074082 
H 22.4501096098 17.0677655604 16.4239243477  0.017586304598953 0.0013646050687554 0.0087133096972057 
H 20.1391345271 18.7768986055 17.3846103608  0.0022290997797376 0.017827748333472 0.016973415134815 
O 18.0037263898 22.5357387941 18.3145259547  0.033566725844471 0.012894582561499 0.033522418167151 
H 16.7131791389 22.9489842209 17.1653151405  -0.022560655475263 0.0063962977681682 -0.024378938321589 
H 18.9237114700 24.1766583759 18.5632876830  -0.010899742523833 -0.024378280819108 -0.0075399803640149 
