# total energy = -458.7130801075999784

ATOMS
O 24.7947690703 22.0327464686 16.2954569497  0.015013774252201 -0.020161406177343 -0.0084933270683007 
H 23.0097956249 21.9456697537 16.0384711310  -0.020335424514539 -0.0058002638978156 -0.0080776532376862 
H 25.0144573538 23.5699899765 17.1729779821  0.0075972306288659 0.025929875244915 0.015534108193059 
O 19.5231875698 21.9071892497 13.1651965412  -0.0085085802424319 0.0057870154287868 0.0093092203034289 
H 20.6917227289 23.1696797287 12.4614509934  -0.0025913803821947 -0.017989655057629 -0.0037602266186802 
H 19.9331165263 20.2246484381 12.4924727463  0.010383571686735 0.019354707619425 -0.0067539151952879 
O 24.0319393286 19.4636781874 11.3846620638  0.0050966524012392 0.0053346434066779 -0.0026938537615781 
H 25.2839663911 19.9111673511 12.6674236408  -0.0024098493859174 0.012414803171145 -0.0038913882801283 
H 23.8129275672 17.7402361319 11.9224763825  -0.0037070652479855 -0.016530724679229 -0.0013889824562483 
O 24.9757633107 16.5606196157 15.6224704828  0.013167462238681 -0.012808280819083 -0.018037927636037 
H 26.0828842429 17.8587182143 16.2181463422  0.018328397537897 0.016621353328893 -0.0023665061342595 
H 23.9029938297 16.5373211756 17.0382461401  -0.031071391408767 -0.0097838219202487 0.026226856399247 
O 19.9337930484 18.1714830949 17.3649137398  -0.011097584402219 0.0005611396310538 -0.017986126123282 
H 18.2808812612 19.0050320775 17.2275513984  0.0036064154170887 -0.0001835283341392 0.012426809623088 
H 20.2325418264 17.9502830300 15.5458269487  0.009303036539797 -0.003975129057659 0.0083010808284026 
O 20.0250744052 23.1737974431 19.6459196474  -0.012945612569811 0.021191984538336 -0.0004222728503469 
H 21.2071929195 21.8479141934 19.2768673684  0.0024320266535351 -0.012188842905578 -0.0051313464115064 
H 19.1917654178 23.6505206783 18.0504479918  0.0077420333424506 -0.0077670138589973 0.0072139983896069 
