# total energy = -458.7183257857000171

ATOMS
O 22.0124772604 23.1679978720 12.8888637009  0.012734129808663 0.0043554755781634 0.0091543523143785 
H 22.7668315781 21.4940345298 12.7855995874  0.0001247013062964 -0.0043283870946942 -0.0031639054710166 
H 20.2333374013 22.7943630058 12.9603218250  -0.011336241117391 -0.0047687691869828 -0.0028927830146629 
O 24.3259089878 19.4547926926 19.5090391862  -0.0072177678189694 -0.012339553851316 -0.0020924084368999 
H 25.2296386393 20.9435911678 18.9430074690  0.005362161498766 0.016484880087117 0.011455704189787 
H 25.5363582843 18.3560243522 20.3241501058  0.0042447083245322 -0.0025717773103195 0.0032707271277319 
O 23.8205053711 17.6290370561 14.7428783100  0.013746426805223 0.013397684435876 -0.020325544127746 
H 22.8736710544 16.2942059507 15.4800965862  -0.011615625206165 -0.020786769185938 0.0059017147202117 
H 24.3937312778 18.5532116604 16.2317712714  0.0049713153183847 -0.0016991964634751 0.007473744419497 
O 19.0297270256 19.0642372139 16.4666397292  -0.013365200254799 -0.013957975597035 0.0030234102189799 
H 18.2928129953 20.6741558298 16.8071325692  -0.0086416825654228 0.013923713059086 0.0047849773164103 
H 20.8040197359 19.2639170715 16.7665355713  0.012424687174447 0.0030873155198071 0.0031391994365586 
O 24.9357332308 24.2728775885 18.1640999328  -0.0038086633003417 0.0051628076143771 -0.0050440163986138 
H 24.0265177028 23.5939328133 16.7158096385  -0.0019481651950895 0.0011403819086762 -0.013635126093088 
H 23.8951816997 25.7538998384 18.5110367407  0.0048560893311182 0.0005535540701937 0.0068001016270904 
O 19.1001533589 17.7626086059 11.4474161068  0.0015608629274374 -0.0029011750585207 -0.010417276021388 
H 20.9308940943 17.6094783852 11.5254504797  0.0004890650597501 0.0001226793213884 -0.0017326222369316 
H 18.6140060569 17.4130658649 13.1834683083  -0.0025701904461818 0.0051299368746403 0.0043106598868252 
